 argument  1 = ./input.nw
  NWChem w/ OpenMP: maximum threads =  1
 


============================== echo of input deck ==============================
echo

start feru-uvvis-3

permanent_dir ./perm
scratch_dir /scratch

#memory stack 1600 mb heap 100 mb global 3000 mb noverify
#memory 8192 mb noverify
#memory 7500 mb noverify

memory stack 1600 mb heap 1000 mb global 10000 mb noverify

charge -1

basis "ao basis" spherical print
  Fe library "Stuttgart RSC 1997 ECP"
  Ru library "Stuttgart RSC 1997 ECP"
# Ru library def2-tzvp
# * library 6-311G** except Fe Ru
 * library 6-31G* except Fe Ru
end

ecp
  Fe   library "Stuttgart RSC 1997 ECP"
  Ru   library "Stuttgart RSC 1997 ECP"
end

dft
  odft
  xc pbe0
  mult 2
  print "final vectors analysis"
  maxiter 500
  mulliken
  direct
end

##
geometry units angstroms nocenter noautoz noautosym
  Fe      0.00000000     0.00000000     0.00000000
  C       1.94258795     0.08164614     0.14020343
  N       3.10520417     0.13346716     0.20638222
  C       0.00266571    -1.71050308     0.88438509
  N      -0.07525153    -2.81173174     1.29357301
  C      -0.10716525     0.94404203     1.68647007
  N      -0.05838085     1.55215124     2.69407878
  C       0.01202453     1.67394058    -0.90763276
  N      -0.04407769     2.70340941    -1.46770195
  C       0.23192906    -0.87972143    -1.71214525
  N       0.44907824    -1.39676329    -2.74799361
  C      -1.89899629    -0.09859569    -0.20149820
  N      -3.06054403    -0.15487717    -0.37261798
  Ru      5.10622901     0.18098331     0.54195815
  N       7.16324427     0.19757098     1.00669098
  H       7.60343526     1.10998369     0.87575013
  H       7.34708900    -0.04997395     1.98363225
  H       7.66953139    -0.47628707     0.41016361
  N       4.67340480    -0.71924103     2.42302825
  H       5.48128923    -0.91245090     3.01665257
  H       4.03207680    -0.14296849     2.97292532
  H       4.24624492    -1.63387608     2.29545710
  N       5.51368585     1.02929581    -1.36477922
  H       5.01257799     0.46716811    -2.06011768
  H       5.12603300     1.97902083    -1.40106131
  H       6.49538257     1.04005526    -1.65665297
  N       5.32139168    -1.70500847    -0.38880686
  H       4.66621164    -1.76899455    -1.17320483
  H       6.25969324    -1.81520917    -0.78103438
  H       5.18379574    -2.49683390     0.25139493
  N       4.86068770     2.11770342     1.37327112
  H       4.27157833     2.64715675     0.71669804
  H       4.39132780     2.09738349     2.28385473
  H       5.74344302     2.62613103     1.41427021
  O      -3.06186541     3.01053224     0.87775664
  H      -2.23615184     3.42734905     0.58609270
  H      -2.98253756     2.08257452     0.60590474
  O       2.06830736     3.02281131    -3.78338150
  H       1.52288986     2.35034189    -4.26138723
  H       1.57675594     3.17755157    -2.96501484
  O       5.64866180    -2.99323016     4.06163379
  H       6.56192979    -3.02860244     4.39885219
  H       5.06910084    -3.02596675     4.84708818
  O      -0.72148026    -4.24950700    -4.16842426
  H      -0.99731917    -3.54863873    -4.80070076
  H      -0.94051932    -3.90945533    -3.28824915
  O       5.22923059    -3.88370091     1.49060218
  H       5.38342512    -3.73310729     2.44416347
  H       4.43663263    -4.44515589     1.42230667
  O       7.70001991     0.09199385     3.91157691
  H       8.00911641    -0.65794991     4.44259916
  H       6.97818308     0.50607907     4.44730676
  O       4.19408222    -4.65553685    -2.09537073
  H       3.41015172    -4.19609284    -1.73882116
  H       3.83131742    -5.23315247    -2.78086065
  O       0.52030339     1.17252557    -5.01559468
  H       1.06345727     0.48772080    -5.45572299
  H       0.07643612     0.67247453    -4.30699961
  O      -0.47405272    -4.51140200     4.47374471
  H      -1.39203260    -4.16656807     4.57516312
  H      -0.50734789    -5.13734480     3.71718580
  O      -5.24046006    -2.10162922    -0.16299847
  H      -4.76056236    -2.91077822     0.03937857
  H      -4.55263015    -1.45757251    -0.42554312
  O       3.57178959     3.09278969    -0.95546496
  H       3.19175171     3.93275227    -1.31748295
  H       2.89704387     2.41157338    -1.08407763
  O      -2.26744564     2.19078151    -3.33810998
  H      -2.94171400     2.34635990    -2.65114488
  H      -1.43167463     2.46169362    -2.90591194
  O       1.96159198    -3.54375588     4.15289736
  H       2.32778609    -4.06703311     3.41667601
  H       1.01603420    -3.86022272     4.28355102
  O      -5.08847947     1.55169988    -1.97899568
  H      -5.21707729     1.15123719    -2.87777410
  H      -4.53620530     0.94004384    -1.46504361
  O      -4.49648493    -2.13310287    -3.82041618
  H      -4.29190276    -2.73253261    -3.05714425
  H      -4.68680827    -2.74161529    -4.54789091
  O      10.77862698    -1.66726441    -2.41142058
  H      11.30876825    -1.15509860    -1.77914426
  H      10.59558917    -1.04633692    -3.13652413
  O      -5.31903433     0.41320047    -4.38555121
  H      -4.42033091     0.55832575    -4.71803669
  H      -5.29683788    -0.52332432    -4.11012665
  O       3.97424418    -1.01143459    -2.97003640
  H       3.03808506    -0.79405309    -2.85949861
  H       4.00836815    -1.65690278    -3.70575410
  O       2.55664086     5.44792540    -1.78307673
  H       1.61591565     5.55230771    -1.49015035
  H       2.52556869     5.59234287    -2.77374728
  O       3.73797279     3.34821416     5.66848293
  H       3.31411718     3.15153716     6.51210815
  H       3.92451940     4.30053992     5.60563000
  O      -1.27417567    -2.41934563    -6.03121827
  H      -2.04854139    -2.64139593    -6.56970230
  H      -1.53730239    -1.59117260    -5.54908946
  O       0.20631726    -6.03313479     2.24237564
  H       0.74068930    -5.31890743     1.85785170
  H      -0.48943441    -6.21764911     1.60733121
  O       7.15431970     3.65786022     0.42530994
  H       7.84308630     3.27352188    -0.13395855
  H       7.68000635     4.03355903     1.16790935
  O      -4.61338838     4.23587088    -1.29351696
  H      -4.94162289     3.41285288    -1.69612760
  H      -4.23784961     3.91026295    -0.45632971
  O       8.16040156     3.28545133    -4.74545911
  H       8.42508808     2.94876058    -5.61336762
  H       7.18752915     3.23782089    -4.76174441
  O      11.97702530     0.51161063     2.08451501
  H      12.48872813     0.53713191     2.90357955
  H      11.14379818     0.96911487     2.32644682
  O      10.18027677    -4.23112945    -1.28219276
  H      10.03227353    -3.52205795    -1.92322418
  H      11.12525690    -4.12840587    -1.08768648
  O       3.68678214    -3.27037565     6.23481533
  H       3.02250179    -3.43717064     5.52558660
  H       3.14348042    -3.10569022     7.01918558
  O      -6.68455881    -1.65375704     2.14422502
  H      -6.15544896    -1.64789729     1.32107523
  H      -7.58594768    -1.73818392     1.81657271
  O       8.00375439    -2.99030869     5.55236923
  H       8.36437179    -3.88481559     5.48226079
  H       7.50502191    -2.98553027     6.38064147
  O      -3.20188400    -3.72411480     4.66522194
  H      -2.94923441    -2.85312233     5.01733246
  H      -3.41915368    -3.56083927     3.72572853
  O      -0.16244855     5.59945403    -1.24746158
  H      -0.38670486     4.70489552    -1.56103468
  H      -0.33387307     5.51345472    -0.28128467
  O       5.78949911     1.24467942     5.45012732
  H       4.87265183     1.21445559     5.12693151
  H       6.03573067     2.19890010     5.46396566
  O      -3.31756452     0.65948723     4.29352852
  H      -3.05379644     0.98670130     3.42342592
  H      -4.20143027     0.27942007     4.16542539
  O      -1.50417236    -1.25892359     5.32456036
  H      -0.60698467    -1.14563548     4.95912104
  H      -2.01351210    -0.48584193     5.01223500
  O      -3.63729038    -3.86201843    -2.03649115
  H      -2.75024880    -3.88810638    -1.60741753
  H      -4.10380530    -4.66438646    -1.78753214
  O       4.04253845    -2.80146185    -5.15265064
  H       3.27941522    -3.41393879    -5.01995108
  H       4.83516683    -3.35184491    -5.15405103
  O       5.83400232     0.26368323    -5.79128971
  H       6.19351225     0.47847325    -4.91648578
  H       4.95025510    -0.07123603    -5.57244591
  O       5.98841922    -6.20496335    -0.62116501
  H       5.36356655    -5.55434754    -1.01590169
  H       6.85068490    -5.97306714    -0.98331781
  O      -2.43908393    -0.51200658    -4.55913104
  H      -2.10966863     0.12168664    -3.89379304
  H      -3.03919073    -1.13192122    -4.10161496
  O      -0.04620188     7.43487901    -3.36459780
  H       0.25914928     8.18927619    -2.83704537
  H      -0.35414876     6.80011518    -2.70144583
  O       1.79801429    -4.38247618    -5.15747724
  H       1.51291592    -4.39887976    -6.08039470
  H       0.94541999    -4.30829472    -4.64764580
  O       7.43267869    -0.19204585     7.18881012
  H       6.74668227     0.32771016     6.72536516
  H       6.98305691    -0.98712398     7.47060523
  O      -0.51822161     4.69119746     1.27325441
  H      -0.08030049     3.83431006     1.40273977
  H      -1.03631950     4.87168375     2.09203158
  O       3.21264262     1.60797842     3.75614762
  H       2.29416468     1.49775076     3.45587871
  H       3.19381995     2.35066222     4.39586263
  O       6.94790484     3.76704325     5.28052630
  H       6.31029606     4.53743484     5.33344882
  H       7.65420936     3.99756521     5.91011388
  O       8.35092797    -3.57543774     1.52054239
  H       7.59430423    -4.18358311     1.54833079
  H       9.12636889    -4.15410706     1.44859779
  O       9.56466952     1.94608592     2.80711997
  H       9.21432632     2.85146400     2.84703088
  H       8.92359749     1.38183719     3.28743458
  O       2.29584565     5.64140548    -4.43904234
  H       2.13747636     4.66563870    -4.44733146
  H       1.42678388     6.07103839    -4.47614277
  O       6.73538525    -6.35283292     2.08048178
  H       6.08919360    -6.95244803     2.47238106
  H       6.35709488    -6.15636158     1.19808068
  O       1.28753157    -0.85383263     4.37920968
  H       1.64470633    -1.74846983     4.18646735
  H       1.04909778    -0.45541085     3.52965809
  O       9.60807475     2.97030091    -0.85865975
  H      10.27990471     2.41444356    -0.43441680
  H      10.06678732     3.65974739    -1.35135357
  O       8.48582174     1.05094492    -2.61607615
  H       8.70474352     1.81099835    -2.04190286
  H       8.55491019     1.45790785    -3.52130592
  O       5.00089246     5.75924425     5.04052819
  H       5.09720047     5.95285029     4.08410695
  H       4.89375580     6.60829621     5.49408124
  O      -2.35708658     5.48833785     3.22051150
  H      -2.75612393     4.73684920     3.68562611
  H      -3.01639045     5.73228704     2.55486999
  O       1.77590226    -3.83488497    -1.00456715
  H       0.92624310    -4.07292565    -1.41572609
  H       1.63145267    -2.92137659    -0.70715557
  O       5.61468363     6.45287528     2.35551248
  H       5.18686095     7.28398490     2.09967265
  H       5.51437079     5.92442949     1.54572417
  O      -0.57999365     2.98490790     5.56586229
  H      -0.66807461     2.77601455     4.62927097
  H       0.08553832     2.34057042     5.86730886
  O      -3.08635533    -3.21126918     1.82359009
  H      -2.13001293    -3.10807200     1.88325804
  H      -3.42230214    -2.31253998     1.70142711
  O       2.73935966    -5.16549163     1.17754494
  H       2.85014035    -6.08385503     0.88956268
  H       2.39981906    -4.68885344     0.37819795
  O       8.24016834    -1.90543288    -0.67588114
  H       8.38956132    -2.59982689     0.00362196
  H       9.05285326    -1.80196022    -1.18493663
  O      -2.40269767     4.66433000    -4.84908643
  H      -2.42650011     3.83816106    -4.33256500
  H      -3.15615981     4.57015724    -5.44486823
  O       1.83048048    -1.08607981    -5.85185572
  H       2.49456682    -1.61199313    -6.31721486
  H       1.45192098    -1.67547829    -5.18869025
  O      -7.72167765     0.91118501    -1.17298667
  H      -6.79563221     1.15156203    -1.37743890
  H      -8.17847670     1.76162460    -1.19328778
  O       4.85308501     6.68465572    -0.80672131
  H       3.99873446     6.27475350    -1.08996381
  H       5.36030469     6.69696793    -1.63539641
  O       1.45236908     1.01005849     6.52505695
  H       1.50812689     0.38390939     5.77138535
  H       0.82945983     0.59044505     7.13607177
  O       8.81201151     4.82030875     2.39031562
  H       9.44519741     5.21091747     1.77589934
  H       8.22498485     5.53719273     2.67077535
  O      -1.18271847    -4.23359280    -0.90142202
  H      -1.43887633    -4.95819140    -0.31387851
  H      -0.90939981    -3.52788959    -0.26343040
end

set tddft:do_s2 .false.
tddft
  cis
  civecs
# ecut -255.0
  nroots 200
end
task tddft
================================================================================


                                         
                                         
 
 
              Northwest Computational Chemistry Package (NWChem) 6.8
              ------------------------------------------------------
 
 
                    Environmental Molecular Sciences Laboratory
                       Pacific Northwest National Laboratory
                                Richland, WA 99352
 
                              Copyright (c) 1994-2017
                       Pacific Northwest National Laboratory
                            Battelle Memorial Institute
 
             NWChem is an open-source computational chemistry package
                        distributed under the terms of the
                      Educational Community License (ECL) 2.0
             A copy of the license is included with this distribution
                              in the LICENSE.TXT file
 
                                  ACKNOWLEDGMENT
                                  --------------

            This software and its documentation were developed at the
            EMSL at Pacific Northwest National Laboratory, a multiprogram
            national laboratory, operated for the U.S. Department of Energy
            by Battelle under Contract Number DE-AC05-76RL01830. Support
            for this work was provided by the Department of Energy Office
            of Biological and Environmental Research, Office of Basic
            Energy Sciences, and the Office of Advanced Scientific Computing.


           Job information
           ---------------

    hostname        = g0
    program         = /dtemp/niri/exec/nwchem6.8
    date            = Fri Jan 12 10:18:37 2018

    compiled        = Fri_Oct_06_16:41:37_2017
    source          = /home/scicons/cascade/apps/nwchem-6.8
    nwchem branch   = 6.8
    nwchem revision = 29529
    ga revision     = N/A
    input           = ./input.nw
    prefix          = feru-uvvis-3.
    data base       = ./perm/feru-uvvis-3.db
    status          = startup
    nproc           =      256
    time left       =  86369s



           Memory information
           ------------------

    heap     =  131072000 doubles =   1000.0 Mbytes
    stack    =  209715197 doubles =   1600.0 Mbytes
    global   = 1310720000 doubles =  10000.0 Mbytes (distinct from heap & stack)
    total    = 1651507197 doubles =  12600.0 Mbytes
    verify   = no 
    hardfail = no 


           Directory information
           ---------------------
 
  0 permanent = ./perm
  0 scratch   = /scratch
 
 
                     0  ppn                      8
 
 
                                NWChem Input Module
                                -------------------
 
 
  library name resolved from: environment
  library file name is: <
 /home/scicons/cascade/apps/nwchem-6.8/src/basis/libraries/>
  


 Summary of "ao basis" -> "" (spherical)
 ------------------------------------------------------------------------------
       Tag                 Description            Shells   Functions and Types
 ---------------- ------------------------------  ------  ---------------------
 Fe                  Stuttgart RSC 1997 ECP         15       43   6s5p3d1f
 Ru                  Stuttgart RSC 1997 ECP         14       36   6s5p3d
 *                           6-31G*                all atoms except FeRu


  library name resolved from: environment
  library file name is: <
 /home/scicons/cascade/apps/nwchem-6.8/src/basis/libraries/>
  

 **** WARNING Zero Coefficient **** on atom "              Fe"
 angular momentum value:-1  standard basis set name: "Stuttgart RSC 1997 ECP"
 input line that generated warning:
  3105: 2      1.000000000            0.000000000
  
 Local ECP potential is zero and ignored
  

 **** WARNING Zero Coefficient **** on atom "              Ru"
 angular momentum value:-1  standard basis set name: "Stuttgart RSC 1997 ECP"
 input line that generated warning:
  3292: 2      1.000000000            0.000000000
  
 Local ECP potential is zero and ignored
  
                 ECP       "ecp basis" -> "" (cartesian)
                -----
  Fe (Iron) Replaces    10 electrons
  ----------------------------------
             Channel    R-exponent     Exponent     Coefficients
         ------------ ---------------------------------------------------------
  1 U-s       Both         2.00       20.930000     253.749588
  1 U-s       Both         2.00        9.445000      37.922845
 
  2 U-p       Both         2.00       21.760000     161.036812
  2 U-p       Both         2.00        9.178000      27.651298
 
  3 U-d       Both         2.00       25.900000     -24.431276
  3 U-d       Both         2.00        8.835000      -1.434251
 
  Ru (Ruthenium) Replaces    28 electrons
  ---------------------------------------
             Channel    R-exponent     Exponent     Coefficients
         ------------ ---------------------------------------------------------
  1 U-s       Both         2.00       11.105269     209.822971
  1 U-s       Both         2.00        5.414745      30.654726
 
  2 U-p       Both         2.00        9.771271     146.336182
  2 U-p       Both         2.00        5.073991      24.127877
 
  3 U-d       Both         2.00        7.671423      67.515897
  3 U-d       Both         2.00        4.136565       9.870104
 
  4 U-f       Both         2.00       11.360000     -28.340616
  4 U-f       Both         2.00        5.680000      -4.944629
 

 Scaling coordinates for geometry "geometry" by  1.889725989
 (inverse scale =  0.529177249)

 
 
                             Geometry "geometry" -> ""
                             -------------------------
 
 Output coordinates in angstroms (scale by  1.889725989 to convert to a.u.)
 
  No.       Tag          Charge          X              Y              Z
 ---- ---------------- ---------- -------------- -------------- --------------
    1 Fe                  26.0000     0.00000000     0.00000000     0.00000000
    2 C                    6.0000     1.94258795     0.08164614     0.14020343
    3 N                    7.0000     3.10520417     0.13346716     0.20638222
    4 C                    6.0000     0.00266571    -1.71050308     0.88438509
    5 N                    7.0000    -0.07525153    -2.81173174     1.29357301
    6 C                    6.0000    -0.10716525     0.94404203     1.68647007
    7 N                    7.0000    -0.05838085     1.55215124     2.69407878
    8 C                    6.0000     0.01202453     1.67394058    -0.90763276
    9 N                    7.0000    -0.04407769     2.70340941    -1.46770195
   10 C                    6.0000     0.23192906    -0.87972143    -1.71214525
   11 N                    7.0000     0.44907824    -1.39676329    -2.74799361
   12 C                    6.0000    -1.89899629    -0.09859569    -0.20149820
   13 N                    7.0000    -3.06054403    -0.15487717    -0.37261798
   14 Ru                  44.0000     5.10622901     0.18098331     0.54195815
   15 N                    7.0000     7.16324427     0.19757098     1.00669098
   16 H                    1.0000     7.60343526     1.10998369     0.87575013
   17 H                    1.0000     7.34708900    -0.04997395     1.98363225
   18 H                    1.0000     7.66953139    -0.47628707     0.41016361
   19 N                    7.0000     4.67340480    -0.71924103     2.42302825
   20 H                    1.0000     5.48128923    -0.91245090     3.01665257
   21 H                    1.0000     4.03207680    -0.14296849     2.97292532
   22 H                    1.0000     4.24624492    -1.63387608     2.29545710
   23 N                    7.0000     5.51368585     1.02929581    -1.36477922
   24 H                    1.0000     5.01257799     0.46716811    -2.06011768
   25 H                    1.0000     5.12603300     1.97902083    -1.40106131
   26 H                    1.0000     6.49538257     1.04005526    -1.65665297
   27 N                    7.0000     5.32139168    -1.70500847    -0.38880686
   28 H                    1.0000     4.66621164    -1.76899455    -1.17320483
   29 H                    1.0000     6.25969324    -1.81520917    -0.78103438
   30 H                    1.0000     5.18379574    -2.49683390     0.25139493
   31 N                    7.0000     4.86068770     2.11770342     1.37327112
   32 H                    1.0000     4.27157833     2.64715675     0.71669804
   33 H                    1.0000     4.39132780     2.09738349     2.28385473
   34 H                    1.0000     5.74344302     2.62613103     1.41427021
   35 O                    8.0000    -3.06186541     3.01053224     0.87775664
   36 H                    1.0000    -2.23615184     3.42734905     0.58609270
   37 H                    1.0000    -2.98253756     2.08257452     0.60590474
   38 O                    8.0000     2.06830736     3.02281131    -3.78338150
   39 H                    1.0000     1.52288986     2.35034189    -4.26138723
   40 H                    1.0000     1.57675594     3.17755157    -2.96501484
   41 O                    8.0000     5.64866180    -2.99323016     4.06163379
   42 H                    1.0000     6.56192979    -3.02860244     4.39885219
   43 H                    1.0000     5.06910084    -3.02596675     4.84708818
   44 O                    8.0000    -0.72148026    -4.24950700    -4.16842426
   45 H                    1.0000    -0.99731917    -3.54863873    -4.80070076
   46 H                    1.0000    -0.94051932    -3.90945533    -3.28824915
   47 O                    8.0000     5.22923059    -3.88370091     1.49060218
   48 H                    1.0000     5.38342512    -3.73310729     2.44416347
   49 H                    1.0000     4.43663263    -4.44515589     1.42230667
   50 O                    8.0000     7.70001991     0.09199385     3.91157691
   51 H                    1.0000     8.00911641    -0.65794991     4.44259916
   52 H                    1.0000     6.97818308     0.50607907     4.44730676
   53 O                    8.0000     4.19408222    -4.65553685    -2.09537073
   54 H                    1.0000     3.41015172    -4.19609284    -1.73882116
   55 H                    1.0000     3.83131742    -5.23315247    -2.78086065
   56 O                    8.0000     0.52030339     1.17252557    -5.01559468
   57 H                    1.0000     1.06345727     0.48772080    -5.45572299
   58 H                    1.0000     0.07643612     0.67247453    -4.30699961
   59 O                    8.0000    -0.47405272    -4.51140200     4.47374471
   60 H                    1.0000    -1.39203260    -4.16656807     4.57516312
   61 H                    1.0000    -0.50734789    -5.13734480     3.71718580
   62 O                    8.0000    -5.24046006    -2.10162922    -0.16299847
   63 H                    1.0000    -4.76056236    -2.91077822     0.03937857
   64 H                    1.0000    -4.55263015    -1.45757251    -0.42554312
   65 O                    8.0000     3.57178959     3.09278969    -0.95546496
   66 H                    1.0000     3.19175171     3.93275227    -1.31748295
   67 H                    1.0000     2.89704387     2.41157338    -1.08407763
   68 O                    8.0000    -2.26744564     2.19078151    -3.33810998
   69 H                    1.0000    -2.94171400     2.34635990    -2.65114488
   70 H                    1.0000    -1.43167463     2.46169362    -2.90591194
   71 O                    8.0000     1.96159198    -3.54375588     4.15289736
   72 H                    1.0000     2.32778609    -4.06703311     3.41667601
   73 H                    1.0000     1.01603420    -3.86022272     4.28355102
   74 O                    8.0000    -5.08847947     1.55169988    -1.97899568
   75 H                    1.0000    -5.21707729     1.15123719    -2.87777410
   76 H                    1.0000    -4.53620530     0.94004384    -1.46504361
   77 O                    8.0000    -4.49648493    -2.13310287    -3.82041618
   78 H                    1.0000    -4.29190276    -2.73253261    -3.05714425
   79 H                    1.0000    -4.68680827    -2.74161529    -4.54789091
   80 O                    8.0000    10.77862698    -1.66726441    -2.41142058
   81 H                    1.0000    11.30876825    -1.15509860    -1.77914426
   82 H                    1.0000    10.59558917    -1.04633692    -3.13652413
   83 O                    8.0000    -5.31903433     0.41320047    -4.38555121
   84 H                    1.0000    -4.42033091     0.55832575    -4.71803669
   85 H                    1.0000    -5.29683788    -0.52332432    -4.11012665
   86 O                    8.0000     3.97424418    -1.01143459    -2.97003640
   87 H                    1.0000     3.03808506    -0.79405309    -2.85949861
   88 H                    1.0000     4.00836815    -1.65690278    -3.70575410
   89 O                    8.0000     2.55664086     5.44792540    -1.78307673
   90 H                    1.0000     1.61591565     5.55230771    -1.49015035
   91 H                    1.0000     2.52556869     5.59234287    -2.77374728
   92 O                    8.0000     3.73797279     3.34821416     5.66848293
   93 H                    1.0000     3.31411718     3.15153716     6.51210815
   94 H                    1.0000     3.92451940     4.30053992     5.60563000
   95 O                    8.0000    -1.27417567    -2.41934563    -6.03121827
   96 H                    1.0000    -2.04854139    -2.64139593    -6.56970230
   97 H                    1.0000    -1.53730239    -1.59117260    -5.54908946
   98 O                    8.0000     0.20631726    -6.03313479     2.24237564
   99 H                    1.0000     0.74068930    -5.31890743     1.85785170
  100 H                    1.0000    -0.48943441    -6.21764911     1.60733121
  101 O                    8.0000     7.15431970     3.65786022     0.42530994
  102 H                    1.0000     7.84308630     3.27352188    -0.13395855
  103 H                    1.0000     7.68000635     4.03355903     1.16790935
  104 O                    8.0000    -4.61338838     4.23587088    -1.29351696
  105 H                    1.0000    -4.94162289     3.41285288    -1.69612760
  106 H                    1.0000    -4.23784961     3.91026295    -0.45632971
  107 O                    8.0000     8.16040156     3.28545133    -4.74545911
  108 H                    1.0000     8.42508808     2.94876058    -5.61336762
  109 H                    1.0000     7.18752915     3.23782089    -4.76174441
  110 O                    8.0000    11.97702530     0.51161063     2.08451501
  111 H                    1.0000    12.48872813     0.53713191     2.90357955
  112 H                    1.0000    11.14379818     0.96911487     2.32644682
  113 O                    8.0000    10.18027677    -4.23112945    -1.28219276
  114 H                    1.0000    10.03227353    -3.52205795    -1.92322418
  115 H                    1.0000    11.12525690    -4.12840587    -1.08768648
  116 O                    8.0000     3.68678214    -3.27037565     6.23481533
  117 H                    1.0000     3.02250179    -3.43717064     5.52558660
  118 H                    1.0000     3.14348042    -3.10569022     7.01918558
  119 O                    8.0000    -6.68455881    -1.65375704     2.14422502
  120 H                    1.0000    -6.15544896    -1.64789729     1.32107523
  121 H                    1.0000    -7.58594768    -1.73818392     1.81657271
  122 O                    8.0000     8.00375439    -2.99030869     5.55236923
  123 H                    1.0000     8.36437179    -3.88481559     5.48226079
  124 H                    1.0000     7.50502191    -2.98553027     6.38064147
  125 O                    8.0000    -3.20188400    -3.72411480     4.66522194
  126 H                    1.0000    -2.94923441    -2.85312233     5.01733246
  127 H                    1.0000    -3.41915368    -3.56083927     3.72572853
  128 O                    8.0000    -0.16244855     5.59945403    -1.24746158
  129 H                    1.0000    -0.38670486     4.70489552    -1.56103468
  130 H                    1.0000    -0.33387307     5.51345472    -0.28128467
  131 O                    8.0000     5.78949911     1.24467942     5.45012732
  132 H                    1.0000     4.87265183     1.21445559     5.12693151
  133 H                    1.0000     6.03573067     2.19890010     5.46396566
  134 O                    8.0000    -3.31756452     0.65948723     4.29352852
  135 H                    1.0000    -3.05379644     0.98670130     3.42342592
  136 H                    1.0000    -4.20143027     0.27942007     4.16542539
  137 O                    8.0000    -1.50417236    -1.25892359     5.32456036
  138 H                    1.0000    -0.60698467    -1.14563548     4.95912104
  139 H                    1.0000    -2.01351210    -0.48584193     5.01223500
  140 O                    8.0000    -3.63729038    -3.86201843    -2.03649115
  141 H                    1.0000    -2.75024880    -3.88810638    -1.60741753
  142 H                    1.0000    -4.10380530    -4.66438646    -1.78753214
  143 O                    8.0000     4.04253845    -2.80146185    -5.15265064
  144 H                    1.0000     3.27941522    -3.41393879    -5.01995108
  145 H                    1.0000     4.83516683    -3.35184491    -5.15405103
  146 O                    8.0000     5.83400232     0.26368323    -5.79128971
  147 H                    1.0000     6.19351225     0.47847325    -4.91648578
  148 H                    1.0000     4.95025510    -0.07123603    -5.57244591
  149 O                    8.0000     5.98841922    -6.20496335    -0.62116501
  150 H                    1.0000     5.36356655    -5.55434754    -1.01590169
  151 H                    1.0000     6.85068490    -5.97306714    -0.98331781
  152 O                    8.0000    -2.43908393    -0.51200658    -4.55913104
  153 H                    1.0000    -2.10966863     0.12168664    -3.89379304
  154 H                    1.0000    -3.03919073    -1.13192122    -4.10161496
  155 O                    8.0000    -0.04620188     7.43487901    -3.36459780
  156 H                    1.0000     0.25914928     8.18927619    -2.83704537
  157 H                    1.0000    -0.35414876     6.80011518    -2.70144583
  158 O                    8.0000     1.79801429    -4.38247618    -5.15747724
  159 H                    1.0000     1.51291592    -4.39887976    -6.08039470
  160 H                    1.0000     0.94541999    -4.30829472    -4.64764580
  161 O                    8.0000     7.43267869    -0.19204585     7.18881012
  162 H                    1.0000     6.74668227     0.32771016     6.72536516
  163 H                    1.0000     6.98305691    -0.98712398     7.47060523
  164 O                    8.0000    -0.51822161     4.69119746     1.27325441
  165 H                    1.0000    -0.08030049     3.83431006     1.40273977
  166 H                    1.0000    -1.03631950     4.87168375     2.09203158
  167 O                    8.0000     3.21264262     1.60797842     3.75614762
  168 H                    1.0000     2.29416468     1.49775076     3.45587871
  169 H                    1.0000     3.19381995     2.35066222     4.39586263
  170 O                    8.0000     6.94790484     3.76704325     5.28052630
  171 H                    1.0000     6.31029606     4.53743484     5.33344882
  172 H                    1.0000     7.65420936     3.99756521     5.91011388
  173 O                    8.0000     8.35092797    -3.57543774     1.52054239
  174 H                    1.0000     7.59430423    -4.18358311     1.54833079
  175 H                    1.0000     9.12636889    -4.15410706     1.44859779
  176 O                    8.0000     9.56466952     1.94608592     2.80711997
  177 H                    1.0000     9.21432632     2.85146400     2.84703088
  178 H                    1.0000     8.92359749     1.38183719     3.28743458
  179 O                    8.0000     2.29584565     5.64140548    -4.43904234
  180 H                    1.0000     2.13747636     4.66563870    -4.44733146
  181 H                    1.0000     1.42678388     6.07103839    -4.47614277
  182 O                    8.0000     6.73538525    -6.35283292     2.08048178
  183 H                    1.0000     6.08919360    -6.95244803     2.47238106
  184 H                    1.0000     6.35709488    -6.15636158     1.19808068
  185 O                    8.0000     1.28753157    -0.85383263     4.37920968
  186 H                    1.0000     1.64470633    -1.74846983     4.18646735
  187 H                    1.0000     1.04909778    -0.45541085     3.52965809
  188 O                    8.0000     9.60807475     2.97030091    -0.85865975
  189 H                    1.0000    10.27990471     2.41444356    -0.43441680
  190 H                    1.0000    10.06678732     3.65974739    -1.35135357
  191 O                    8.0000     8.48582174     1.05094492    -2.61607615
  192 H                    1.0000     8.70474352     1.81099835    -2.04190286
  193 H                    1.0000     8.55491019     1.45790785    -3.52130592
  194 O                    8.0000     5.00089246     5.75924425     5.04052819
  195 H                    1.0000     5.09720047     5.95285029     4.08410695
  196 H                    1.0000     4.89375580     6.60829621     5.49408124
  197 O                    8.0000    -2.35708658     5.48833785     3.22051150
  198 H                    1.0000    -2.75612393     4.73684920     3.68562611
  199 H                    1.0000    -3.01639045     5.73228704     2.55486999
  200 O                    8.0000     1.77590226    -3.83488497    -1.00456715
  201 H                    1.0000     0.92624310    -4.07292565    -1.41572609
  202 H                    1.0000     1.63145267    -2.92137659    -0.70715557
  203 O                    8.0000     5.61468363     6.45287528     2.35551248
  204 H                    1.0000     5.18686095     7.28398490     2.09967265
  205 H                    1.0000     5.51437079     5.92442949     1.54572417
  206 O                    8.0000    -0.57999365     2.98490790     5.56586229
  207 H                    1.0000    -0.66807461     2.77601455     4.62927097
  208 H                    1.0000     0.08553832     2.34057042     5.86730886
  209 O                    8.0000    -3.08635533    -3.21126918     1.82359009
  210 H                    1.0000    -2.13001293    -3.10807200     1.88325804
  211 H                    1.0000    -3.42230214    -2.31253998     1.70142711
  212 O                    8.0000     2.73935966    -5.16549163     1.17754494
  213 H                    1.0000     2.85014035    -6.08385503     0.88956268
  214 H                    1.0000     2.39981906    -4.68885344     0.37819795
  215 O                    8.0000     8.24016834    -1.90543288    -0.67588114
  216 H                    1.0000     8.38956132    -2.59982689     0.00362196
  217 H                    1.0000     9.05285326    -1.80196022    -1.18493663
  218 O                    8.0000    -2.40269767     4.66433000    -4.84908643
  219 H                    1.0000    -2.42650011     3.83816106    -4.33256500
  220 H                    1.0000    -3.15615981     4.57015724    -5.44486823
  221 O                    8.0000     1.83048048    -1.08607981    -5.85185572
  222 H                    1.0000     2.49456682    -1.61199313    -6.31721486
  223 H                    1.0000     1.45192098    -1.67547829    -5.18869025
  224 O                    8.0000    -7.72167765     0.91118501    -1.17298667
  225 H                    1.0000    -6.79563221     1.15156203    -1.37743890
  226 H                    1.0000    -8.17847670     1.76162460    -1.19328778
  227 O                    8.0000     4.85308501     6.68465572    -0.80672131
  228 H                    1.0000     3.99873446     6.27475350    -1.08996381
  229 H                    1.0000     5.36030469     6.69696793    -1.63539641
  230 O                    8.0000     1.45236908     1.01005849     6.52505695
  231 H                    1.0000     1.50812689     0.38390939     5.77138535
  232 H                    1.0000     0.82945983     0.59044505     7.13607177
  233 O                    8.0000     8.81201151     4.82030875     2.39031562
  234 H                    1.0000     9.44519741     5.21091747     1.77589934
  235 H                    1.0000     8.22498485     5.53719273     2.67077535
  236 O                    8.0000    -1.18271847    -4.23359280    -0.90142202
  237 H                    1.0000    -1.43887633    -4.95819140    -0.31387851
  238 H                    1.0000    -0.90939981    -3.52788959    -0.26343040
 
      Atomic Mass 
      ----------- 
 
      Fe                55.934900
      C                 12.000000
      N                 14.003070
      Ru               101.903700
      H                  1.007825
      O                 15.994910
 

 Effective nuclear repulsion energy (a.u.)   28947.4235416633

            Nuclear Dipole moment (a.u.) 
            ----------------------------
        X                 Y               Z
 ---------------- ---------------- ----------------
  3905.5503292833   141.2248071724   434.1387154574
 
 
            XYZ format geometry
            -------------------
   238
 geometry
 Fe                    0.00000000     0.00000000     0.00000000
 C                     1.94258795     0.08164614     0.14020343
 N                     3.10520417     0.13346716     0.20638222
 C                     0.00266571    -1.71050308     0.88438509
 N                    -0.07525153    -2.81173174     1.29357301
 C                    -0.10716525     0.94404203     1.68647007
 N                    -0.05838085     1.55215124     2.69407878
 C                     0.01202453     1.67394058    -0.90763276
 N                    -0.04407769     2.70340941    -1.46770195
 C                     0.23192906    -0.87972143    -1.71214525
 N                     0.44907824    -1.39676329    -2.74799361
 C                    -1.89899629    -0.09859569    -0.20149820
 N                    -3.06054403    -0.15487717    -0.37261798
 Ru                    5.10622901     0.18098331     0.54195815
 N                     7.16324427     0.19757098     1.00669098
 H                     7.60343526     1.10998369     0.87575013
 H                     7.34708900    -0.04997395     1.98363225
 H                     7.66953139    -0.47628707     0.41016361
 N                     4.67340480    -0.71924103     2.42302825
 H                     5.48128923    -0.91245090     3.01665257
 H                     4.03207680    -0.14296849     2.97292532
 H                     4.24624492    -1.63387608     2.29545710
 N                     5.51368585     1.02929581    -1.36477922
 H                     5.01257799     0.46716811    -2.06011768
 H                     5.12603300     1.97902083    -1.40106131
 H                     6.49538257     1.04005526    -1.65665297
 N                     5.32139168    -1.70500847    -0.38880686
 H                     4.66621164    -1.76899455    -1.17320483
 H                     6.25969324    -1.81520917    -0.78103438
 H                     5.18379574    -2.49683390     0.25139493
 N                     4.86068770     2.11770342     1.37327112
 H                     4.27157833     2.64715675     0.71669804
 H                     4.39132780     2.09738349     2.28385473
 H                     5.74344302     2.62613103     1.41427021
 O                    -3.06186541     3.01053224     0.87775664
 H                    -2.23615184     3.42734905     0.58609270
 H                    -2.98253756     2.08257452     0.60590474
 O                     2.06830736     3.02281131    -3.78338150
 H                     1.52288986     2.35034189    -4.26138723
 H                     1.57675594     3.17755157    -2.96501484
 O                     5.64866180    -2.99323016     4.06163379
 H                     6.56192979    -3.02860244     4.39885219
 H                     5.06910084    -3.02596675     4.84708818
 O                    -0.72148026    -4.24950700    -4.16842426
 H                    -0.99731917    -3.54863873    -4.80070076
 H                    -0.94051932    -3.90945533    -3.28824915
 O                     5.22923059    -3.88370091     1.49060218
 H                     5.38342512    -3.73310729     2.44416347
 H                     4.43663263    -4.44515589     1.42230667
 O                     7.70001991     0.09199385     3.91157691
 H                     8.00911641    -0.65794991     4.44259916
 H                     6.97818308     0.50607907     4.44730676
 O                     4.19408222    -4.65553685    -2.09537073
 H                     3.41015172    -4.19609284    -1.73882116
 H                     3.83131742    -5.23315247    -2.78086065
 O                     0.52030339     1.17252557    -5.01559468
 H                     1.06345727     0.48772080    -5.45572299
 H                     0.07643612     0.67247453    -4.30699961
 O                    -0.47405272    -4.51140200     4.47374471
 H                    -1.39203260    -4.16656807     4.57516312
 H                    -0.50734789    -5.13734480     3.71718580
 O                    -5.24046006    -2.10162922    -0.16299847
 H                    -4.76056236    -2.91077822     0.03937857
 H                    -4.55263015    -1.45757251    -0.42554312
 O                     3.57178959     3.09278969    -0.95546496
 H                     3.19175171     3.93275227    -1.31748295
 H                     2.89704387     2.41157338    -1.08407763
 O                    -2.26744564     2.19078151    -3.33810998
 H                    -2.94171400     2.34635990    -2.65114488
 H                    -1.43167463     2.46169362    -2.90591194
 O                     1.96159198    -3.54375588     4.15289736
 H                     2.32778609    -4.06703311     3.41667601
 H                     1.01603420    -3.86022272     4.28355102
 O                    -5.08847947     1.55169988    -1.97899568
 H                    -5.21707729     1.15123719    -2.87777410
 H                    -4.53620530     0.94004384    -1.46504361
 O                    -4.49648493    -2.13310287    -3.82041618
 H                    -4.29190276    -2.73253261    -3.05714425
 H                    -4.68680827    -2.74161529    -4.54789091
 O                    10.77862698    -1.66726441    -2.41142058
 H                    11.30876825    -1.15509860    -1.77914426
 H                    10.59558917    -1.04633692    -3.13652413
 O                    -5.31903433     0.41320047    -4.38555121
 H                    -4.42033091     0.55832575    -4.71803669
 H                    -5.29683788    -0.52332432    -4.11012665
 O                     3.97424418    -1.01143459    -2.97003640
 H                     3.03808506    -0.79405309    -2.85949861
 H                     4.00836815    -1.65690278    -3.70575410
 O                     2.55664086     5.44792540    -1.78307673
 H                     1.61591565     5.55230771    -1.49015035
 H                     2.52556869     5.59234287    -2.77374728
 O                     3.73797279     3.34821416     5.66848293
 H                     3.31411718     3.15153716     6.51210815
 H                     3.92451940     4.30053992     5.60563000
 O                    -1.27417567    -2.41934563    -6.03121827
 H                    -2.04854139    -2.64139593    -6.56970230
 H                    -1.53730239    -1.59117260    -5.54908946
 O                     0.20631726    -6.03313479     2.24237564
 H                     0.74068930    -5.31890743     1.85785170
 H                    -0.48943441    -6.21764911     1.60733121
 O                     7.15431970     3.65786022     0.42530994
 H                     7.84308630     3.27352188    -0.13395855
 H                     7.68000635     4.03355903     1.16790935
 O                    -4.61338838     4.23587088    -1.29351696
 H                    -4.94162289     3.41285288    -1.69612760
 H                    -4.23784961     3.91026295    -0.45632971
 O                     8.16040156     3.28545133    -4.74545911
 H                     8.42508808     2.94876058    -5.61336762
 H                     7.18752915     3.23782089    -4.76174441
 O                    11.97702530     0.51161063     2.08451501
 H                    12.48872813     0.53713191     2.90357955
 H                    11.14379818     0.96911487     2.32644682
 O                    10.18027677    -4.23112945    -1.28219276
 H                    10.03227353    -3.52205795    -1.92322418
 H                    11.12525690    -4.12840587    -1.08768648
 O                     3.68678214    -3.27037565     6.23481533
 H                     3.02250179    -3.43717064     5.52558660
 H                     3.14348042    -3.10569022     7.01918558
 O                    -6.68455881    -1.65375704     2.14422502
 H                    -6.15544896    -1.64789729     1.32107523
 H                    -7.58594768    -1.73818392     1.81657271
 O                     8.00375439    -2.99030869     5.55236923
 H                     8.36437179    -3.88481559     5.48226079
 H                     7.50502191    -2.98553027     6.38064147
 O                    -3.20188400    -3.72411480     4.66522194
 H                    -2.94923441    -2.85312233     5.01733246
 H                    -3.41915368    -3.56083927     3.72572853
 O                    -0.16244855     5.59945403    -1.24746158
 H                    -0.38670486     4.70489552    -1.56103468
 H                    -0.33387307     5.51345472    -0.28128467
 O                     5.78949911     1.24467942     5.45012732
 H                     4.87265183     1.21445559     5.12693151
 H                     6.03573067     2.19890010     5.46396566
 O                    -3.31756452     0.65948723     4.29352852
 H                    -3.05379644     0.98670130     3.42342592
 H                    -4.20143027     0.27942007     4.16542539
 O                    -1.50417236    -1.25892359     5.32456036
 H                    -0.60698467    -1.14563548     4.95912104
 H                    -2.01351210    -0.48584193     5.01223500
 O                    -3.63729038    -3.86201843    -2.03649115
 H                    -2.75024880    -3.88810638    -1.60741753
 H                    -4.10380530    -4.66438646    -1.78753214
 O                     4.04253845    -2.80146185    -5.15265064
 H                     3.27941522    -3.41393879    -5.01995108
 H                     4.83516683    -3.35184491    -5.15405103
 O                     5.83400232     0.26368323    -5.79128971
 H                     6.19351225     0.47847325    -4.91648578
 H                     4.95025510    -0.07123603    -5.57244591
 O                     5.98841922    -6.20496335    -0.62116501
 H                     5.36356655    -5.55434754    -1.01590169
 H                     6.85068490    -5.97306714    -0.98331781
 O                    -2.43908393    -0.51200658    -4.55913104
 H                    -2.10966863     0.12168664    -3.89379304
 H                    -3.03919073    -1.13192122    -4.10161496
 O                    -0.04620188     7.43487901    -3.36459780
 H                     0.25914928     8.18927619    -2.83704537
 H                    -0.35414876     6.80011518    -2.70144583
 O                     1.79801429    -4.38247618    -5.15747724
 H                     1.51291592    -4.39887976    -6.08039470
 H                     0.94541999    -4.30829472    -4.64764580
 O                     7.43267869    -0.19204585     7.18881012
 H                     6.74668227     0.32771016     6.72536516
 H                     6.98305691    -0.98712398     7.47060523
 O                    -0.51822161     4.69119746     1.27325441
 H                    -0.08030049     3.83431006     1.40273977
 H                    -1.03631950     4.87168375     2.09203158
 O                     3.21264262     1.60797842     3.75614762
 H                     2.29416468     1.49775076     3.45587871
 H                     3.19381995     2.35066222     4.39586263
 O                     6.94790484     3.76704325     5.28052630
 H                     6.31029606     4.53743484     5.33344882
 H                     7.65420936     3.99756521     5.91011388
 O                     8.35092797    -3.57543774     1.52054239
 H                     7.59430423    -4.18358311     1.54833079
 H                     9.12636889    -4.15410706     1.44859779
 O                     9.56466952     1.94608592     2.80711997
 H                     9.21432632     2.85146400     2.84703088
 H                     8.92359749     1.38183719     3.28743458
 O                     2.29584565     5.64140548    -4.43904234
 H                     2.13747636     4.66563870    -4.44733146
 H                     1.42678388     6.07103839    -4.47614277
 O                     6.73538525    -6.35283292     2.08048178
 H                     6.08919360    -6.95244803     2.47238106
 H                     6.35709488    -6.15636158     1.19808068
 O                     1.28753157    -0.85383263     4.37920968
 H                     1.64470633    -1.74846983     4.18646735
 H                     1.04909778    -0.45541085     3.52965809
 O                     9.60807475     2.97030091    -0.85865975
 H                    10.27990471     2.41444356    -0.43441680
 H                    10.06678732     3.65974739    -1.35135357
 O                     8.48582174     1.05094492    -2.61607615
 H                     8.70474352     1.81099835    -2.04190286
 H                     8.55491019     1.45790785    -3.52130592
 O                     5.00089246     5.75924425     5.04052819
 H                     5.09720047     5.95285029     4.08410695
 H                     4.89375580     6.60829621     5.49408124
 O                    -2.35708658     5.48833785     3.22051150
 H                    -2.75612393     4.73684920     3.68562611
 H                    -3.01639045     5.73228704     2.55486999
 O                     1.77590226    -3.83488497    -1.00456715
 H                     0.92624310    -4.07292565    -1.41572609
 H                     1.63145267    -2.92137659    -0.70715557
 O                     5.61468363     6.45287528     2.35551248
 H                     5.18686095     7.28398490     2.09967265
 H                     5.51437079     5.92442949     1.54572417
 O                    -0.57999365     2.98490790     5.56586229
 H                    -0.66807461     2.77601455     4.62927097
 H                     0.08553832     2.34057042     5.86730886
 O                    -3.08635533    -3.21126918     1.82359009
 H                    -2.13001293    -3.10807200     1.88325804
 H                    -3.42230214    -2.31253998     1.70142711
 O                     2.73935966    -5.16549163     1.17754494
 H                     2.85014035    -6.08385503     0.88956268
 H                     2.39981906    -4.68885344     0.37819795
 O                     8.24016834    -1.90543288    -0.67588114
 H                     8.38956132    -2.59982689     0.00362196
 H                     9.05285326    -1.80196022    -1.18493663
 O                    -2.40269767     4.66433000    -4.84908643
 H                    -2.42650011     3.83816106    -4.33256500
 H                    -3.15615981     4.57015724    -5.44486823
 O                     1.83048048    -1.08607981    -5.85185572
 H                     2.49456682    -1.61199313    -6.31721486
 H                     1.45192098    -1.67547829    -5.18869025
 O                    -7.72167765     0.91118501    -1.17298667
 H                    -6.79563221     1.15156203    -1.37743890
 H                    -8.17847670     1.76162460    -1.19328778
 O                     4.85308501     6.68465572    -0.80672131
 H                     3.99873446     6.27475350    -1.08996381
 H                     5.36030469     6.69696793    -1.63539641
 O                     1.45236908     1.01005849     6.52505695
 H                     1.50812689     0.38390939     5.77138535
 H                     0.82945983     0.59044505     7.13607177
 O                     8.81201151     4.82030875     2.39031562
 H                     9.44519741     5.21091747     1.77589934
 H                     8.22498485     5.53719273     2.67077535
 O                    -1.18271847    -4.23359280    -0.90142202
 H                    -1.43887633    -4.95819140    -0.31387851
 H                    -0.90939981    -3.52788959    -0.26343040
 
 ==============================================================================
                                internuclear distances
 ------------------------------------------------------------------------------
       center one      |      center two      | atomic units |  angstroms
 ------------------------------------------------------------------------------
    2 C                |   1 Fe               |     3.68374  |     1.94935
    3 N                |   2 C                |     2.20276  |     1.16565
    4 C                |   1 Fe               |     3.63887  |     1.92561
    5 N                |   4 C                |     2.22491  |     1.17737
    6 C                |   1 Fe               |     3.65792  |     1.93569
    7 N                |   6 C                |     2.22591  |     1.17790
    8 C                |   1 Fe               |     3.59844  |     1.90421
    9 N                |   8 C                |     2.21721  |     1.17330
   10 C                |   1 Fe               |     3.66390  |     1.93885
   11 N                |  10 C                |     2.22592  |     1.17791
   12 C                |   1 Fe               |     3.61353  |     1.91220
   13 N                |  12 C                |     2.22125  |     1.17543
   14 Ru               |   3 N                |     3.83525  |     2.02952
   15 N                |  14 Ru               |     3.98529  |     2.10892
   16 H                |  15 N                |     1.93031  |     1.02147
   17 H                |  15 N                |     1.93592  |     1.02445
   18 H                |  15 N                |     1.95133  |     1.03260
   19 N                |  14 Ru               |     4.02479  |     2.12983
   20 H                |  19 N                |     1.92937  |     1.02098
   21 H                |  19 N                |     1.93250  |     1.02263
   22 H                |  19 N                |     1.92279  |     1.01750
   23 N                |  14 Ru               |     4.01819  |     2.12634
   24 H                |  23 N                |     1.93694  |     1.02498
   25 H                |  23 N                |     1.93968  |     1.02643
   26 H                |  23 N                |     1.93550  |     1.02422
   27 N                |  14 Ru               |     3.99514  |     2.11414
   28 H                |  27 N                |     1.93513  |     1.02403
   29 H                |  27 N                |     1.93307  |     1.02294
   30 H                |  27 N                |     1.94171  |     1.02751
   31 N                |  14 Ru               |     4.00972  |     2.12185
   32 H                |  31 N                |     1.94418  |     1.02881
   33 H                |  31 N                |     1.93628  |     1.02463
   34 H                |  31 N                |     1.92663  |     1.01953
   36 H                |  35 O                |     1.83275  |     0.96985
   37 H                |  35 O                |     1.83343  |     0.97021
   39 H                |  38 O                |     1.86900  |     0.98903
   40 H                |  38 O                |     1.82756  |     0.96710
   42 H                |  41 O                |     1.84093  |     0.97418
   43 H                |  41 O                |     1.84566  |     0.97668
   45 H                |  44 O                |     1.85836  |     0.98340
   46 H                |  44 O                |     1.83052  |     0.96867
   48 H                |  47 O                |     1.84743  |     0.97762
   49 H                |  47 O                |     1.84004  |     0.97371
   51 H                |  50 O                |     1.83210  |     0.96951
   52 H                |  50 O                |     1.87028  |     0.98971
   54 H                |  53 O                |     1.84455  |     0.97610
   55 H                |  53 O                |     1.82741  |     0.96702
   57 H                |  56 O                |     1.84931  |     0.97861
   58 H                |  56 O                |     1.84108  |     0.97426
   60 H                |  59 O                |     1.86297  |     0.98584
   61 H                |  59 O                |     1.85664  |     0.98249
   63 H                |  62 O                |     1.81844  |     0.96228
   64 H                |  62 O                |     1.84850  |     0.97819
   66 H                |  65 O                |     1.87171  |     0.99047
   67 H                |  65 O                |     1.82814  |     0.96741
   69 H                |  68 O                |     1.84262  |     0.97507
   70 H                |  68 O                |     1.85029  |     0.97913
   72 H                |  71 O                |     1.84182  |     0.97465
   73 H                |  71 O                |     1.90037  |     1.00563
   75 H                |  74 O                |     1.87522  |     0.99233
   76 H                |  74 O                |     1.83535  |     0.97122
   78 H                |  77 O                |     1.87431  |     0.99184
   79 H                |  77 O                |     1.82799  |     0.96733
   81 H                |  80 O                |     1.83521  |     0.97115
   82 H                |  80 O                |     1.83686  |     0.97202
   84 H                |  83 O                |     1.83145  |     0.96916
   85 H                |  83 O                |     1.84520  |     0.97644
   87 H                |  86 O                |     1.82813  |     0.96740
   88 H                |  86 O                |     1.85065  |     0.97932
   90 H                |  89 O                |     1.87232  |     0.99079
   91 H                |  89 O                |     1.89279  |     1.00162
   93 H                |  92 O                |     1.82242  |     0.96439
   94 H                |  92 O                |     1.83768  |     0.97246
   96 H                |  95 O                |     1.83110  |     0.96898
   97 H                |  95 O                |     1.87793  |     0.99376
   99 H                |  98 O                |     1.83560  |     0.97136
  100 H                |  98 O                |     1.81394  |     0.95989
  102 H                | 101 O                |     1.82718  |     0.96690
  103 H                | 101 O                |     1.86016  |     0.98435
  105 H                | 104 O                |     1.83915  |     0.97324
  106 H                | 104 O                |     1.83987  |     0.97362
  108 H                | 107 O                |     1.82892  |     0.96782
  109 H                | 107 O                |     1.84092  |     0.97417
  111 H                | 110 O                |     1.82567  |     0.96610
  112 H                | 110 O                |     1.85358  |     0.98087
  114 H                | 113 O                |     1.82787  |     0.96727
  115 H                | 113 O                |     1.83349  |     0.97024
  117 H                | 116 O                |     1.86317  |     0.98595
  118 H                | 116 O                |     1.82975  |     0.96826
  120 H                | 119 O                |     1.84920  |     0.97855
  121 H                | 119 O                |     1.81943  |     0.96280
  123 H                | 122 O                |     1.82738  |     0.96701
  124 H                | 122 O                |     1.82707  |     0.96685
  126 H                | 125 O                |     1.83842  |     0.97285
  127 H                | 125 O                |     1.84818  |     0.97801
  129 H                | 128 O                |     1.84077  |     0.97409
  130 H                | 128 O                |     1.86143  |     0.98503
  132 H                | 131 O                |     1.83797  |     0.97261
  133 H                | 131 O                |     1.86247  |     0.98558
  135 H                | 134 O                |     1.82603  |     0.96629
  136 H                | 134 O                |     1.83418  |     0.97061
  138 H                | 137 O                |     1.84316  |     0.97536
  139 H                | 137 O                |     1.84636  |     0.97705
  141 H                | 140 O                |     1.86272  |     0.98571
  142 H                | 140 O                |     1.81592  |     0.96094
  144 H                | 143 O                |     1.86605  |     0.98747
  145 H                | 143 O                |     1.82354  |     0.96498
  147 H                | 146 O                |     1.83280  |     0.96988
  148 H                | 146 O                |     1.83320  |     0.97009
  150 H                | 149 O                |     1.86074  |     0.98466
  151 H                | 149 O                |     1.82085  |     0.96355
  153 H                | 152 O                |     1.84455  |     0.97609
  154 H                | 152 O                |     1.84550  |     0.97660
  156 H                | 155 O                |     1.83281  |     0.96988
  157 H                | 155 O                |     1.82975  |     0.96826
  159 H                | 158 O                |     1.82564  |     0.96609
  160 H                | 158 O                |     1.88248  |     0.99617
  162 H                | 161 O                |     1.84722  |     0.97751
  163 H                | 161 O                |     1.80636  |     0.95589
  165 H                | 164 O                |     1.83488  |     0.97098
  166 H                | 164 O                |     1.86250  |     0.98559
  168 H                | 167 O                |     1.83791  |     0.97258
  169 H                | 167 O                |     1.85267  |     0.98039
  171 H                | 170 O                |     1.89242  |     1.00142
  172 H                | 170 O                |     1.84031  |     0.97385
  174 H                | 173 O                |     1.83517  |     0.97113
  175 H                | 173 O                |     1.83347  |     0.97023
  177 H                | 176 O                |     1.83609  |     0.97162
  178 H                | 176 O                |     1.85160  |     0.97982
  180 H                | 179 O                |     1.86813  |     0.98857
  181 H                | 179 O                |     1.83335  |     0.97017
  183 H                | 182 O                |     1.82306  |     0.96472
  184 H                | 182 O                |     1.85187  |     0.97997
  186 H                | 185 O                |     1.85646  |     0.98239
  187 H                | 185 O                |     1.82955  |     0.96816
  189 H                | 188 O                |     1.83246  |     0.96970
  190 H                | 188 O                |     1.82092  |     0.96359
  192 H                | 191 O                |     1.84699  |     0.97739
  193 H                | 191 O                |     1.88010  |     0.99490
  195 H                | 194 O                |     1.85299  |     0.98056
  196 H                | 194 O                |     1.83028  |     0.96854
  198 H                | 197 O                |     1.83245  |     0.96969
  199 H                | 197 O                |     1.82950  |     0.96813
  201 H                | 200 O                |     1.83958  |     0.97347
  202 H                | 200 O                |     1.83587  |     0.97150
  204 H                | 203 O                |     1.83141  |     0.96914
  205 H                | 203 O                |     1.83710  |     0.97215
  207 H                | 206 O                |     1.82101  |     0.96364
  208 H                | 206 O                |     1.84088  |     0.97415
  210 H                | 209 O                |     1.82121  |     0.96374
  211 H                | 209 O                |     1.82776  |     0.96721
  213 H                | 212 O                |     1.83079  |     0.96881
  214 H                | 212 O                |     1.87210  |     0.99067
  216 H                | 215 O                |     1.85754  |     0.98297
  217 H                | 215 O                |     1.82268  |     0.96452
  219 H                | 218 O                |     1.84180  |     0.97464
  220 H                | 218 O                |     1.82388  |     0.96516
  222 H                | 221 O                |     1.82645  |     0.96652
  223 H                | 221 O                |     1.82286  |     0.96462
  225 H                | 224 O                |     1.84879  |     0.97834
  226 H                | 224 O                |     1.82466  |     0.96557
  228 H                | 227 O                |     1.86898  |     0.98902
  229 H                | 227 O                |     1.83617  |     0.97166
  231 H                | 230 O                |     1.85462  |     0.98142
  232 H                | 230 O                |     1.82965  |     0.96821
  234 H                | 233 O                |     1.82337  |     0.96489
  235 H                | 233 O                |     1.82941  |     0.96808
  237 H                | 236 O                |     1.82813  |     0.96740
  238 H                | 236 O                |     1.87050  |     0.98982
 ------------------------------------------------------------------------------
                         number of included internuclear distances:        169
 ==============================================================================



 ==============================================================================
                                 internuclear angles
 ------------------------------------------------------------------------------
        center 1       |       center 2       |       center 3       |  degrees
 ------------------------------------------------------------------------------
    2 C                |   1 Fe               |   4 C                |    90.16
    2 C                |   1 Fe               |   6 C                |    88.40
    2 C                |   1 Fe               |   8 C                |    89.49
    2 C                |   1 Fe               |  10 C                |    87.90
    2 C                |   1 Fe               |  12 C                |   177.99
    4 C                |   1 Fe               |   6 C                |    91.90
    4 C                |   1 Fe               |   8 C                |   178.79
    4 C                |   1 Fe               |  10 C                |    90.14
    4 C                |   1 Fe               |  12 C                |    90.23
    6 C                |   1 Fe               |   8 C                |    89.25
    6 C                |   1 Fe               |  10 C                |   175.78
    6 C                |   1 Fe               |  12 C                |    93.55
    8 C                |   1 Fe               |  10 C                |    88.69
    8 C                |   1 Fe               |  12 C                |    90.08
   10 C                |   1 Fe               |  12 C                |    90.13
    1 Fe               |   2 C                |   3 N                |   179.12
    2 C                |   3 N                |  14 Ru               |   173.63
    1 Fe               |   4 C                |   5 N                |   172.04
    1 Fe               |   6 C                |   7 N                |   174.15
    1 Fe               |   8 C                |   9 N                |   176.90
    1 Fe               |  10 C                |  11 N                |   176.19
    1 Fe               |  12 C                |  13 N                |   177.67
    3 N                |  14 Ru               |  15 N                |   176.67
    3 N                |  14 Ru               |  19 N                |    86.32
    3 N                |  14 Ru               |  23 N                |    92.87
    3 N                |  14 Ru               |  27 N                |    90.38
    3 N                |  14 Ru               |  31 N                |    88.40
   15 N                |  14 Ru               |  19 N                |    90.40
   15 N                |  14 Ru               |  23 N                |    90.43
   15 N                |  14 Ru               |  27 N                |    90.27
   15 N                |  14 Ru               |  31 N                |    91.11
   19 N                |  14 Ru               |  23 N                |   178.30
   19 N                |  14 Ru               |  27 N                |    91.86
   19 N                |  14 Ru               |  31 N                |    90.93
   23 N                |  14 Ru               |  27 N                |    86.65
   23 N                |  14 Ru               |  31 N                |    90.54
   27 N                |  14 Ru               |  31 N                |   176.88
   14 Ru               |  15 N                |  16 H                |   113.52
   14 Ru               |  15 N                |  17 H                |   112.54
   14 Ru               |  15 N                |  18 H                |   110.23
   16 H                |  15 N                |  17 H                |   105.11
   16 H                |  15 N                |  18 H                |   107.31
   17 H                |  15 N                |  18 H                |   107.77
   14 Ru               |  19 N                |  20 H                |   115.64
   14 Ru               |  19 N                |  21 H                |   111.36
   14 Ru               |  19 N                |  22 H                |   110.76
   20 H                |  19 N                |  21 H                |   106.87
   20 H                |  19 N                |  22 H                |   103.59
   21 H                |  19 N                |  22 H                |   108.10
   14 Ru               |  23 N                |  24 H                |   107.21
   14 Ru               |  23 N                |  25 H                |   109.18
   14 Ru               |  23 N                |  26 H                |   116.32
   24 H                |  23 N                |  25 H                |   107.39
   24 H                |  23 N                |  26 H                |   106.32
   25 H                |  23 N                |  26 H                |   110.01
   14 Ru               |  27 N                |  28 H                |   109.14
   14 Ru               |  27 N                |  29 H                |   110.99
   14 Ru               |  27 N                |  30 H                |   113.55
   28 H                |  27 N                |  29 H                |   106.64
   28 H                |  27 N                |  30 H                |   110.09
   29 H                |  27 N                |  30 H                |   106.18
   14 Ru               |  31 N                |  32 H                |   106.62
   14 Ru               |  31 N                |  33 H                |   112.52
   14 Ru               |  31 N                |  34 H                |   111.76
   32 H                |  31 N                |  33 H                |   108.36
   32 H                |  31 N                |  34 H                |   105.36
   33 H                |  31 N                |  34 H                |   111.76
   36 H                |  35 O                |  37 H                |   104.90
   39 H                |  38 O                |  40 H                |   103.74
   42 H                |  41 O                |  43 H                |   106.06
   45 H                |  44 O                |  46 H                |   105.70
   48 H                |  47 O                |  49 H                |   106.60
   51 H                |  50 O                |  52 H                |   105.05
   54 H                |  53 O                |  55 H                |   103.82
   57 H                |  56 O                |  58 H                |   102.76
   60 H                |  59 O                |  61 H                |   105.69
   63 H                |  62 O                |  64 H                |   105.04
   66 H                |  65 O                |  67 H                |   106.32
   69 H                |  68 O                |  70 H                |   103.60
   72 H                |  71 O                |  73 H                |   106.41
   75 H                |  74 O                |  76 H                |   107.39
   78 H                |  77 O                |  79 H                |   103.84
   81 H                |  80 O                |  82 H                |   104.57
   84 H                |  83 O                |  85 H                |   102.67
   87 H                |  86 O                |  88 H                |   105.53
   90 H                |  89 O                |  91 H                |   104.35
   93 H                |  92 O                |  94 H                |   109.91
   96 H                |  95 O                |  97 H                |   104.42
   99 H                |  98 O                | 100 H                |   106.15
  102 H                | 101 O                | 103 H                |   101.98
  105 H                | 104 O                | 106 H                |   101.71
  108 H                | 107 O                | 109 H                |   103.95
  111 H                | 110 O                | 112 H                |   103.21
  114 H                | 113 O                | 115 H                |   101.79
  117 H                | 116 O                | 118 H                |   103.50
  120 H                | 119 O                | 121 H                |   102.74
  123 H                | 122 O                | 124 H                |   105.01
  126 H                | 125 O                | 127 H                |   104.83
  129 H                | 128 O                | 130 H                |   101.27
  132 H                | 131 O                | 133 H                |   105.68
  135 H                | 134 O                | 136 H                |   105.21
  138 H                | 137 O                | 139 H                |   105.54
  141 H                | 140 O                | 142 H                |   107.58
  144 H                | 143 O                | 145 H                |   106.33
  147 H                | 146 O                | 148 H                |   102.16
  150 H                | 149 O                | 151 H                |   104.96
  153 H                | 152 O                | 154 H                |   107.47
  156 H                | 155 O                | 157 H                |   103.74
  159 H                | 158 O                | 160 H                |   103.75
  162 H                | 161 O                | 163 H                |   104.59
  165 H                | 164 O                | 166 H                |   106.73
  168 H                | 167 O                | 169 H                |   105.62
  171 H                | 170 O                | 172 H                |   104.21
  174 H                | 173 O                | 175 H                |   104.56
  177 H                | 176 O                | 178 H                |   106.29
  180 H                | 179 O                | 181 H                |   107.05
  183 H                | 182 O                | 184 H                |   103.40
  186 H                | 185 O                | 187 H                |   106.99
  189 H                | 188 O                | 190 H                |   107.70
  192 H                | 191 O                | 193 H                |   101.59
  195 H                | 194 O                | 196 H                |   107.13
  198 H                | 197 O                | 199 H                |   104.17
  201 H                | 200 O                | 202 H                |   103.27
  204 H                | 203 O                | 205 H                |   101.58
  207 H                | 206 O                | 208 H                |   102.70
  210 H                | 209 O                | 211 H                |   104.65
  213 H                | 212 O                | 214 H                |   104.80
  216 H                | 215 O                | 217 H                |   108.21
  219 H                | 218 O                | 220 H                |   103.02
  222 H                | 221 O                | 223 H                |   105.56
  225 H                | 224 O                | 226 H                |   103.12
  228 H                | 227 O                | 229 H                |   102.24
  231 H                | 230 O                | 232 H                |   104.16
  234 H                | 233 O                | 235 H                |   106.42
  237 H                | 236 O                | 238 H                |   102.45
 ------------------------------------------------------------------------------
                            number of included internuclear angles:        135
 ==============================================================================



 tddft_input: filename not found; default name will be used
 
                                 NWChem DFT Module
                                 -----------------
 
 
                      Basis "ao basis" -> "ao basis" (spherical)
                      -----
  Fe (Iron)
  ---------
            Exponent  Coefficients 
       -------------- ---------------------------------------------------------
  1 S  2.05130280E+01  0.234714
  1 S  9.77679200E+00 -0.877527
  1 S  4.57359900E+00 -0.341636
 
  2 S  1.94991000E+00  1.000000
 
  3 S  7.66488000E-01  1.000000
 
  4 S  1.00798000E-01  1.000000
 
  5 S  3.75160000E-02  1.000000
 
  6 S  1.00000000E-02  1.000000
 
  7 P  6.31253260E+01  0.027147
  7 P  1.16568550E+01 -1.011875
 
  8 P  5.17866100E+00  0.215168
  8 P  2.03553200E+00  0.825095
 
  9 P  7.08818000E-01  1.000000
 
 10 P  1.10168000E-01  1.000000
 
 11 P  2.94440000E-02  1.000000
 
 12 D  3.36667900E+01  0.036529
 12 D  1.02356950E+01  0.182825
 12 D  3.46648800E+00  0.437069
 12 D  1.12729600E+00  0.575178
 
 13 D  3.08247000E-01  1.000000
 
 14 D  8.00000000E-02  1.000000
 
 15 F  2.00000000E+00  1.000000
 
  Ru (Ruthenium)
  --------------
            Exponent  Coefficients 
       -------------- ---------------------------------------------------------
  1 S  7.93657000E+00 -1.119666
  1 S  5.98424500E+00  1.445329
  1 S  4.88222000E+00  0.626165
 
  2 S  1.14462400E+00  1.000000
 
  3 S  5.23017000E-01  1.000000
 
  4 S  1.17573000E-01  1.000000
 
  5 S  4.80500000E-02  1.000000
 
  6 S  1.60000000E-02  1.000000
 
[...]
     Occ.  351 beta  a   ---  Virt.  421 beta  a        0.05481
     Occ.  352 beta  a   ---  Virt.  421 beta  a       -0.08904
     Occ.  416 beta  a   ---  Virt.  426 beta  a       -0.07329
  ----------------------------------------------------------------------------
  Root 190         a              0.203329473 a.u.                5.5329 eV 
  ----------------------------------------------------------------------------
     Transition Moments    X  0.00896   Y -0.02210   Z -0.01985
     Transition Moments   XX  0.15625  XY -0.35762  XZ -0.22901
     Transition Moments   YY  0.09270  YZ  0.01615  ZZ -0.06680
     Dipole Oscillator Strength                    0.0001305017
     Electric Quadrupole                           0.0000000087
     Magnetic Dipole                               0.0000000001
     Total Oscillator Strength                     0.0001305105
 
     Occ.  324 beta  a   ---  Virt.  421 beta  a        0.11410
     Occ.  334 beta  a   ---  Virt.  421 beta  a       -0.05988
     Occ.  336 beta  a   ---  Virt.  421 beta  a        0.13757
     Occ.  337 beta  a   ---  Virt.  421 beta  a       -0.24354
     Occ.  338 beta  a   ---  Virt.  421 beta  a        0.38942
     Occ.  339 beta  a   ---  Virt.  421 beta  a       -0.13921
     Occ.  342 beta  a   ---  Virt.  421 beta  a       -0.07962
     Occ.  343 beta  a   ---  Virt.  421 beta  a       -0.39599
     Occ.  344 beta  a   ---  Virt.  421 beta  a       -0.36512
     Occ.  345 beta  a   ---  Virt.  421 beta  a       -0.35316
     Occ.  346 beta  a   ---  Virt.  421 beta  a       -0.49165
     Occ.  348 beta  a   ---  Virt.  421 beta  a        0.15571
     Occ.  351 beta  a   ---  Virt.  421 beta  a       -0.08514
     Occ.  352 beta  a   ---  Virt.  421 beta  a       -0.07935
     Occ.  353 beta  a   ---  Virt.  421 beta  a       -0.08849
  ----------------------------------------------------------------------------
  Root 191         a              0.203354447 a.u.                5.5336 eV 
  ----------------------------------------------------------------------------
     Transition Moments    X -0.01629   Y  0.01665   Z -0.01412
     Transition Moments   XX -0.45797  XY  0.43208  XZ -0.03132
     Transition Moments   YY -0.08328  YZ  0.01987  ZZ  0.15119
     Dipole Oscillator Strength                    0.0001006099
     Electric Quadrupole                           0.0000000126
     Magnetic Dipole                               0.0000000047
     Total Oscillator Strength                     0.0001006272
 
     Occ.  289 beta  a   ---  Virt.  421 beta  a        0.05259
     Occ.  330 beta  a   ---  Virt.  421 beta  a       -0.06717
     Occ.  337 beta  a   ---  Virt.  421 beta  a        0.62732
     Occ.  338 beta  a   ---  Virt.  421 beta  a       -0.41294
     Occ.  339 beta  a   ---  Virt.  421 beta  a       -0.10189
     Occ.  341 beta  a   ---  Virt.  421 beta  a       -0.14228
     Occ.  342 beta  a   ---  Virt.  421 beta  a       -0.08875
     Occ.  343 beta  a   ---  Virt.  421 beta  a       -0.20660
     Occ.  344 beta  a   ---  Virt.  421 beta  a       -0.30176
     Occ.  345 beta  a   ---  Virt.  421 beta  a        0.20546
     Occ.  346 beta  a   ---  Virt.  421 beta  a       -0.35277
     Occ.  349 beta  a   ---  Virt.  421 beta  a        0.14105
     Occ.  350 beta  a   ---  Virt.  421 beta  a       -0.08390
     Occ.  351 beta  a   ---  Virt.  421 beta  a        0.11354
     Occ.  352 beta  a   ---  Virt.  421 beta  a        0.13963
     Occ.  353 beta  a   ---  Virt.  421 beta  a        0.05186
  ----------------------------------------------------------------------------
  Root 192         a              0.203461319 a.u.                5.5365 eV 
  ----------------------------------------------------------------------------
     Transition Moments    X -0.00382   Y  0.00406   Z  0.00194
     Transition Moments   XX  0.06185  XY -0.05138  XZ -0.00187
     Transition Moments   YY  0.01190  YZ  0.00388  ZZ -0.02262
     Dipole Oscillator Strength                    0.0000047229
     Electric Quadrupole                           0.0000000002
     Magnetic Dipole                               0.0000000011
     Total Oscillator Strength                     0.0000047242
 
     Occ.  419 alpha a   ---  Virt.  424 alpha a       -0.23985
     Occ.  419 alpha a   ---  Virt.  425 alpha a        0.72136
     Occ.  419 alpha a   ---  Virt.  426 alpha a       -0.15405
     Occ.  419 alpha a   ---  Virt.  428 alpha a        0.05632
     Occ.  419 alpha a   ---  Virt.  432 alpha a        0.05113
     Occ.  417 beta  a   ---  Virt.  424 beta  a        0.19926
     Occ.  417 beta  a   ---  Virt.  425 beta  a       -0.57808
     Occ.  417 beta  a   ---  Virt.  426 beta  a        0.08360
     Occ.  417 beta  a   ---  Virt.  428 beta  a       -0.05006
  ----------------------------------------------------------------------------
  Root 193         a              0.203560529 a.u.                5.5392 eV 
  ----------------------------------------------------------------------------
     Transition Moments    X  0.02864   Y -0.01578   Z -0.01492
     Transition Moments   XX -0.55481  XY  0.44719  XZ -0.02137
     Transition Moments   YY -0.16134  YZ -0.02459  ZZ  0.19147
     Dipole Oscillator Strength                    0.0001752621
     Electric Quadrupole                           0.0000000153
     Magnetic Dipole                               0.0000000482
     Total Oscillator Strength                     0.0001753256
 
     Occ.  419 alpha a   ---  Virt.  424 alpha a        0.18058
     Occ.  419 alpha a   ---  Virt.  425 alpha a       -0.58075
     Occ.  419 alpha a   ---  Virt.  426 alpha a        0.11426
     Occ.  417 beta  a   ---  Virt.  424 beta  a        0.23692
     Occ.  417 beta  a   ---  Virt.  425 beta  a       -0.73286
     Occ.  417 beta  a   ---  Virt.  426 beta  a        0.09882
     Occ.  417 beta  a   ---  Virt.  428 beta  a       -0.05862
  ----------------------------------------------------------------------------
  Root 194         a              0.203929485 a.u.                5.5492 eV 
  ----------------------------------------------------------------------------
     Transition Moments    X -0.10336   Y -0.05291   Z -0.08400
     Transition Moments   XX  0.73259  XY -0.03329  XZ -0.04592
     Transition Moments   YY  0.14309  YZ  0.28289  ZZ  0.37544
     Dipole Oscillator Strength                    0.0027923414
     Electric Quadrupole                           0.0000000077
     Magnetic Dipole                               0.0000000057
     Total Oscillator Strength                     0.0027923549
 
     Occ.  324 beta  a   ---  Virt.  421 beta  a        0.06137
     Occ.  336 beta  a   ---  Virt.  421 beta  a        0.05748
     Occ.  338 beta  a   ---  Virt.  421 beta  a        0.05376
     Occ.  342 beta  a   ---  Virt.  421 beta  a        0.05857
     Occ.  343 beta  a   ---  Virt.  421 beta  a        0.06125
     Occ.  420 beta  a   ---  Virt.  434 beta  a        0.09873
     Occ.  420 beta  a   ---  Virt.  435 beta  a        0.05343
     Occ.  420 beta  a   ---  Virt.  436 beta  a       -0.14763
     Occ.  420 beta  a   ---  Virt.  437 beta  a       -0.82908
     Occ.  420 beta  a   ---  Virt.  438 beta  a        0.16914
     Occ.  420 beta  a   ---  Virt.  439 beta  a       -0.08876
     Occ.  420 beta  a   ---  Virt.  440 beta  a       -0.11171
     Occ.  420 beta  a   ---  Virt.  441 beta  a        0.14258
     Occ.  420 beta  a   ---  Virt.  442 beta  a       -0.07772
     Occ.  420 beta  a   ---  Virt.  443 beta  a       -0.26169
     Occ.  420 beta  a   ---  Virt.  445 beta  a        0.06499
     Occ.  420 beta  a   ---  Virt.  446 beta  a       -0.09993
     Occ.  420 beta  a   ---  Virt.  447 beta  a        0.06096
     Occ.  420 beta  a   ---  Virt.  448 beta  a       -0.10508
     Occ.  420 beta  a   ---  Virt.  449 beta  a        0.18918
     Occ.  420 beta  a   ---  Virt.  461 beta  a       -0.07977
  ----------------------------------------------------------------------------
  Root 195         a              0.203953624 a.u.                5.5499 eV 
  ----------------------------------------------------------------------------
     Transition Moments    X  0.00077   Y  0.00125   Z  0.00181
     Transition Moments   XX  0.01099  XY -0.00488  XZ  0.00655
     Transition Moments   YY  0.01055  YZ  0.00596  ZZ -0.01224
     Dipole Oscillator Strength                    0.0000007401
     Electric Quadrupole                           0.0000000000
     Magnetic Dipole                               0.0000000002
     Total Oscillator Strength                     0.0000007403
 
     Occ.  417 alpha a   ---  Virt.  423 alpha a       -0.07464
     Occ.  418 alpha a   ---  Virt.  423 alpha a        0.99070
     Occ.  418 alpha a   ---  Virt.  424 alpha a       -0.08915
  ----------------------------------------------------------------------------
  Root 196         a              0.204051558 a.u.                5.5525 eV 
  ----------------------------------------------------------------------------
     Transition Moments    X  0.00008   Y -0.00148   Z -0.00176
     Transition Moments   XX -0.01553  XY  0.00530  XZ -0.01007
     Transition Moments   YY -0.01384  YZ -0.00607  ZZ  0.01603
     Dipole Oscillator Strength                    0.0000007235
     Electric Quadrupole                           0.0000000000
     Magnetic Dipole                               0.0000000004
     Total Oscillator Strength                     0.0000007239
 
     Occ.  414 beta  a   ---  Virt.  423 beta  a       -0.99347
     Occ.  414 beta  a   ---  Virt.  424 beta  a        0.09164
  ----------------------------------------------------------------------------
  Root 197         a              0.204150462 a.u.                5.5552 eV 
  ----------------------------------------------------------------------------
     Transition Moments    X  0.00425   Y  0.00304   Z -0.02005
     Transition Moments   XX -0.40693  XY -0.15493  XZ -0.54715
     Transition Moments   YY -0.04181  YZ -0.12776  ZZ -0.22496
     Dipole Oscillator Strength                    0.0000584561
     Electric Quadrupole                           0.0000000169
     Magnetic Dipole                               0.0000000165
     Total Oscillator Strength                     0.0000584895
 
     Occ.  317 beta  a   ---  Virt.  421 beta  a        0.08712
     Occ.  320 beta  a   ---  Virt.  421 beta  a        0.11733
     Occ.  321 beta  a   ---  Virt.  421 beta  a       -0.09772
     Occ.  322 beta  a   ---  Virt.  421 beta  a        0.12505
     Occ.  323 beta  a   ---  Virt.  421 beta  a        0.23470
     Occ.  324 beta  a   ---  Virt.  421 beta  a        0.39170
     Occ.  325 beta  a   ---  Virt.  421 beta  a       -0.16247
     Occ.  326 beta  a   ---  Virt.  421 beta  a       -0.08815
     Occ.  328 beta  a   ---  Virt.  421 beta  a        0.11260
     Occ.  329 beta  a   ---  Virt.  421 beta  a        0.06205
     Occ.  330 beta  a   ---  Virt.  421 beta  a       -0.21753
     Occ.  332 beta  a   ---  Virt.  421 beta  a        0.06018
     Occ.  334 beta  a   ---  Virt.  421 beta  a       -0.17162
     Occ.  336 beta  a   ---  Virt.  421 beta  a        0.39829
     Occ.  337 beta  a   ---  Virt.  421 beta  a        0.14592
     Occ.  338 beta  a   ---  Virt.  421 beta  a        0.11942
     Occ.  339 beta  a   ---  Virt.  421 beta  a       -0.19197
     Occ.  340 beta  a   ---  Virt.  421 beta  a       -0.09993
     Occ.  341 beta  a   ---  Virt.  421 beta  a        0.21209
     Occ.  342 beta  a   ---  Virt.  421 beta  a        0.31290
     Occ.  343 beta  a   ---  Virt.  421 beta  a        0.23880
     Occ.  344 beta  a   ---  Virt.  421 beta  a        0.20900
     Occ.  346 beta  a   ---  Virt.  421 beta  a       -0.10332
     Occ.  347 beta  a   ---  Virt.  421 beta  a       -0.09049
     Occ.  348 beta  a   ---  Virt.  421 beta  a       -0.17403
     Occ.  349 beta  a   ---  Virt.  421 beta  a        0.09116
     Occ.  352 beta  a   ---  Virt.  421 beta  a       -0.08756
     Occ.  420 beta  a   ---  Virt.  437 beta  a        0.14740
  ----------------------------------------------------------------------------
  Root 198         a              0.204428513 a.u.                5.5628 eV 
  ----------------------------------------------------------------------------
     Transition Moments    X -0.03348   Y  0.05000   Z -0.01626
     Transition Moments   XX  0.28207  XY  0.14373  XZ  0.17498
     Transition Moments   YY -0.29267  YZ  0.08555  ZZ  0.13074
     Dipole Oscillator Strength                    0.0005295071
     Electric Quadrupole                           0.0000000067
     Magnetic Dipole                               0.0000000102
     Total Oscillator Strength                     0.0005295240
 
     Occ.  421 alpha a   ---  Virt.  427 alpha a        0.06164
     Occ.  415 beta  a   ---  Virt.  424 beta  a        0.06746
     Occ.  415 beta  a   ---  Virt.  425 beta  a        0.19751
     Occ.  415 beta  a   ---  Virt.  426 beta  a       -0.68476
     Occ.  415 beta  a   ---  Virt.  427 beta  a       -0.08019
     Occ.  415 beta  a   ---  Virt.  429 beta  a        0.06202
     Occ.  419 beta  a   ---  Virt.  428 beta  a       -0.37011
     Occ.  419 beta  a   ---  Virt.  429 beta  a       -0.37672
     Occ.  419 beta  a   ---  Virt.  430 beta  a        0.33227
     Occ.  419 beta  a   ---  Virt.  432 beta  a       -0.11410
     Occ.  419 beta  a   ---  Virt.  440 beta  a        0.07583
     Occ.  419 beta  a   ---  Virt.  442 beta  a        0.07938
  ----------------------------------------------------------------------------
  Root 199         a              0.204886755 a.u.                5.5753 eV 
  ----------------------------------------------------------------------------
     Transition Moments    X  0.01000   Y  0.00138   Z  0.00776
     Transition Moments   XX  0.18770  XY -0.05745  XZ -0.07638
     Transition Moments   YY  0.01704  YZ  0.06042  ZZ -0.09385
     Dipole Oscillator Strength                    0.0000221349
     Electric Quadrupole                           0.0000000015
     Magnetic Dipole                               0.0000000024
     Total Oscillator Strength                     0.0000221388
 
     Occ.  407 beta  a   ---  Virt.  422 beta  a        0.24780
     Occ.  408 beta  a   ---  Virt.  422 beta  a        0.95633
     Occ.  409 beta  a   ---  Virt.  422 beta  a        0.09277
  ----------------------------------------------------------------------------
  Root 200         a              0.204918036 a.u.                5.5761 eV 
  ----------------------------------------------------------------------------
     Transition Moments    X  0.00751   Y -0.01020   Z -0.00462
     Transition Moments   XX -0.03547  XY  0.11216  XZ -0.05126
     Transition Moments   YY -0.10774  YZ  0.01478  ZZ  0.16142
     Dipole Oscillator Strength                    0.0000248351
     Electric Quadrupole                           0.0000000016
     Magnetic Dipole                               0.0000000317
     Total Oscillator Strength                     0.0000248685
 
     Occ.  417 alpha a   ---  Virt.  424 alpha a       -0.06568
     Occ.  418 alpha a   ---  Virt.  423 alpha a        0.08925
     Occ.  418 alpha a   ---  Virt.  424 alpha a        0.89784
     Occ.  418 alpha a   ---  Virt.  425 alpha a        0.23107
     Occ.  418 alpha a   ---  Virt.  432 alpha a        0.06270
     Occ.  414 beta  a   ---  Virt.  424 beta  a       -0.32103
     Occ.  414 beta  a   ---  Virt.  425 beta  a       -0.09031
 
              Target root =      1
          Target symmetry = none
      Ground state energy =  -6249.255257820521
        Excitation energy =      0.005618295026
     Excited state energy =  -6249.249639525496
 
  stored tddft:energy   -6249.24963952550     
 fn_civecs: 
 ./perm/feru-uvvis-3.civecs                                                     
                                                                                
                                                                                
                   

  CI vectors are stored in ./perm/feru-uvvis-3.civecs      

 Task  times  cpu:    26294.7s     wall:    21283.7s
 
 
                                NWChem Input Module
                                -------------------
 
 
 Summary of allocated global arrays
-----------------------------------
  No active global arrays



                         GA Statistics for process    0
                         ------------------------------

       create   destroy   get      put      acc     scatter   gather  read&inc
calls: 1.67e+04 1.67e+04 5.79e+07 2.04e+07 1.33e+07 1.11e+04    0      384     
number of processes/call 1.71e+00 1.48e+00 2.66e+00 0.00e+00 0.00e+00
bytes total:             3.97e+12 1.87e+11 3.72e+12 8.80e+04 0.00e+00 3.07e+03
bytes remote:            2.96e+12 7.58e+09 3.56e+12 0.00e+00 0.00e+00 0.00e+00
Max memory consumed for GA by this process: 6837849648 bytes
 
MA_summarize_allocated_blocks: starting scan ...
heap block 'gridpts', handle 82, address 0xe273918:
	type of elements:		double precision
	number of elements:		67667847
	address of client space:	0xe273980
	index for client space:		11884377
	total number of bytes:		541342888
MA_summarize_allocated_blocks: scan completed: 1 heap block, 0 stack blocks
MA usage statistics:

	allocation statistics:
					      heap	     stack
					      ----	     -----
	current number of blocks	         1	         0
	maximum number of blocks	        40	        52
	current total bytes		 541342888	         0
	maximum total bytes		 543105544	 224013960
	maximum total K-bytes		    543106	    224014
	maximum total M-bytes		       544	       225
 
 
                                     CITATION
                                     --------
                Please cite the following reference when publishing
                           results obtained with NWChem:
 
                 M. Valiev, E.J. Bylaska, N. Govind, K. Kowalski,
              T.P. Straatsma, H.J.J. van Dam, D. Wang, J. Nieplocha,
                        E. Apra, T.L. Windus, W.A. de Jong
                 "NWChem: a comprehensive and scalable open-source
                  solution for large scale molecular simulations"
                      Comput. Phys. Commun. 181, 1477 (2010)
                           doi:10.1016/j.cpc.2010.04.018
 
                                      AUTHORS
                                      -------
          E. Apra, E. J. Bylaska, W. A. de Jong, N. Govind, K. Kowalski,
       T. P. Straatsma, M. Valiev, H. J. J. van Dam, D. Wang, T. L. Windus,
        J. Hammond, J. Autschbach, K. Bhaskaran-Nair, J. Brabec, K. Lopata,
       S. A. Fischer, S. Krishnamoorthy, W. Ma, M. Klemm, O. Villa, Y. Chen,
    V. Anisimov, F. Aquino, S. Hirata, M. T. Hackler, V. Konjkov, T. Risthaus,
       M. Malagoli, A. Marenich, A. Otero-de-la-Roza, J. Mullin, P. Nichols,
      R. Peverati, J. Pittner, Y. Zhao, P.-D. Fan, A. Fonari, M. Williamson,
      R. J. Harrison, J. R. Rehr, M. Dupuis, D. Silverstein, D. M. A. Smith,
            J. Nieplocha, V. Tipparaju, M. Krishnan, B. E. Van Kuiken,
        A. Vazquez-Mayagoitia, L. Jensen, M. Swart, Q. Wu, T. Van Voorhis,
     A. A. Auer, M. Nooijen, L. D. Crosby, E. Brown, G. Cisneros, G. I. Fann,
   H. Fruchtl, J. Garza, K. Hirao, R. A. Kendall, J. A. Nichols, K. Tsemekhman,
    K. Wolinski, J. Anchell, D. E. Bernholdt, P. Borowski, T. Clark, D. Clerc,
   H. Dachsel, M. J. O. Deegan, K. Dyall, D. Elwood, E. Glendening, M. Gutowski,
   A. C. Hess, J. Jaffe, B. G. Johnson, J. Ju, R. Kobayashi, R. Kutteh, Z. Lin,
   R. Littlefield, X. Long, B. Meng, T. Nakajima, S. Niu, L. Pollack, M. Rosing,
   K. Glaesemann, G. Sandrone, M. Stave, H. Taylor, G. Thomas, J. H. van Lenthe,
                               A. T. Wong, Z. Zhang.

 Total times  cpu:    26296.4s     wall:    21304.1s
