 Entering Gaussian System, Link 0=g09
 Input=rufe_h2otz_opt_6f.com
 Output=rufe_h2otz_opt_6f.log
 Initial command:
 /home/bin/gauss09A/g09/l1.exe /state/partition1/205947.1.khalil.q/Gau-29788.inp -scrdir=/state/partition1/205947.1.khalil.q/
 Entering Link 1 = /home/bin/gauss09A/g09/l1.exe PID=     29789.
  
 Copyright (c) 1988,1990,1992,1993,1995,1998,2003,2009, Gaussian, Inc.
                  All Rights Reserved.
  
 This is part of the Gaussian(R) 09 program.  It is based on
 the Gaussian(R) 03 system (copyright 2003, Gaussian, Inc.),
 the Gaussian(R) 98 system (copyright 1998, Gaussian, Inc.),
 the Gaussian(R) 94 system (copyright 1995, Gaussian, Inc.),
 the Gaussian 92(TM) system (copyright 1992, Gaussian, Inc.),
 the Gaussian 90(TM) system (copyright 1990, Gaussian, Inc.),
 the Gaussian 88(TM) system (copyright 1988, Gaussian, Inc.),
 the Gaussian 86(TM) system (copyright 1986, Carnegie Mellon
 University), and the Gaussian 82(TM) system (copyright 1983,
 Carnegie Mellon University). Gaussian is a federally registered
 trademark of Gaussian, Inc.
  
 This software contains proprietary and confidential information,
 including trade secrets, belonging to Gaussian, Inc.
  
 This software is provided under written license and may be
 used, copied, transmitted, or stored only in accord with that
 written license.
  
 The following legend is applicable only to US Government
 contracts under FAR:
  
                    RESTRICTED RIGHTS LEGEND
  
 Use, reproduction and disclosure by the US Government is
 subject to restrictions as set forth in subparagraphs (a)
 and (c) of the Commercial Computer Software - Restricted
 Rights clause in FAR 52.227-19.
  
 Gaussian, Inc.
 340 Quinnipiac St., Bldg. 40, Wallingford CT 06492
  
  
 ---------------------------------------------------------------
 Warning -- This program may not be used in any manner that
 competes with the business of Gaussian, Inc. or will provide
 assistance to any competitor of Gaussian, Inc.  The licensee
 of this program is prohibited from giving any competitor of
 Gaussian, Inc. access to this program.  By using this program,
 the user acknowledges that Gaussian, Inc. is engaged in the
 business of creating and licensing software in the field of
 computational chemistry and represents and warrants to the
 licensee that it is not a competitor of Gaussian, Inc. and that
 it will not use this program in any manner prohibited above.
 ---------------------------------------------------------------
  

 Cite this work as:
 Gaussian 09, Revision A.02,
 M. J. Frisch, G. W. Trucks, H. B. Schlegel, G. E. Scuseria, 
 M. A. Robb, J. R. Cheeseman, G. Scalmani, V. Barone, B. Mennucci, 
 G. A. Petersson, H. Nakatsuji, M. Caricato, X. Li, H. P. Hratchian, 
 A. F. Izmaylov, J. Bloino, G. Zheng, J. L. Sonnenberg, M. Hada, 
 M. Ehara, K. Toyota, R. Fukuda, J. Hasegawa, M. Ishida, T. Nakajima, 
 Y. Honda, O. Kitao, H. Nakai, T. Vreven, J. A. Montgomery, Jr., 
 J. E. Peralta, F. Ogliaro, M. Bearpark, J. J. Heyd, E. Brothers, 
 K. N. Kudin, V. N. Staroverov, R. Kobayashi, J. Normand, 
 K. Raghavachari, A. Rendell, J. C. Burant, S. S. Iyengar, J. Tomasi, 
 M. Cossi, N. Rega, J. M. Millam, M. Klene, J. E. Knox, J. B. Cross, 
 V. Bakken, C. Adamo, J. Jaramillo, R. Gomperts, R. E. Stratmann, 
 O. Yazyev, A. J. Austin, R. Cammi, C. Pomelli, J. W. Ochterski, 
 R. L. Martin, K. Morokuma, V. G. Zakrzewski, G. A. Voth, 
 P. Salvador, J. J. Dannenberg, S. Dapprich, A. D. Daniels, 
 O. Farkas, J. B. Foresman, J. V. Ortiz, J. Cioslowski, 
 and D. J. Fox, Gaussian, Inc., Wallingford CT, 2009.
 
 ******************************************
 Gaussian 09:  EM64L-G09RevA.02 11-Jun-2009
                30-Apr-2010 
 ******************************************
 %mem=24gb
 %nproc=8
 Will use up to    8 processors via shared memory.
 %chk=rufe_h2otz_opt_6f.chk
 ----------------------------------------------------------------------
 #p CacheSize=131072 upbe1pbe/gen freq scf(conver=6,qc) geom=checkpoint
  scrf(pcm,solvent=water) int(grid=ultrafine) pseudo=read
 ----------------------------------------------------------------------
 1/4=131072,10=4,29=2,30=1,38=1/1,3;
 2/4=131072,12=2,40=1/2;
 3/4=131072,5=7,11=2,14=-4,16=1,17=8,25=1,30=1,70=2201,71=2,72=1,74=-13,75=-5,116=2/1,2,3;
 4/4=131072/1;
 5/4=131072,5=2,6=6,8=3,38=5,53=1,98=1/8;
 8/4=131072,6=4,10=90,11=11/1;
 11/4=131072,6=1,8=1,9=11,15=111,16=1/1,2,10;
 10/4=131072,6=1/2;
 6/4=131072,7=2,8=2,9=2,10=2,18=1,28=1/1;
 7/4=131072,8=1,10=1,25=1/1,2,3,16;
 1/4=131072,10=4,30=1/3;
 99/4=131072/99;
 Leave Link    1 at Fri Apr 30 14:11:11 2010, MaxMem= 3221225472 cpu:       0.5
 (Enter /home/bin/gauss09A/g09/l101.exe)
 ------------------------------------
 Optimization for TZVP of rufe in h2o
 ------------------------------------
 Redundant internal coordinates taken from checkpoint file:
 rufe_h2otz_opt_6f.chk
 Charge = -1 Multiplicity = 2
 C,0,-0.3207928236,0.025730342,-0.6556691243
 N,0,-2.9820715119,2.4507151005,-1.7657302903
 N,0,0.8382022818,0.0274252868,-0.6816957045
 N,0,-3.0970018493,-1.989587643,-2.2350385784
 Ru,0,2.7139855515,0.00129,-0.0722450063
 H,0,5.1203332227,0.9000437869,0.8168417603
 Fe,0,-2.1303255515,0.001294,-0.0526689937
 H,0,4.7946771922,-0.4634275477,1.6286293471
 N,0,4.7247224612,-0.0300484532,0.7121957862
 H,0,5.3728236893,-0.5388368792,0.1176885719
 N,0,3.2877186714,1.4527453653,-1.5379273947
 H,0,2.4911306594,1.6905796528,-2.1218351085
 N,0,2.0995819125,-1.4382878472,1.3922393789
 H,0,2.258102769,-1.1397094468,2.3507215448
 N,0,2.1964726646,1.5673597286,1.2954644394
 H,0,2.4475679101,2.4964288148,0.9692525906
 N,0,3.1808088451,-1.5835407485,-1.4350438264
 H,0,3.8112590846,-1.3227117898,-2.1882303103
 C,0,-3.927440823,-0.0305662899,0.6938442614
 H,0,3.6212763046,2.3293503956,-1.1462921575
 C,0,-1.5016227538,1.2427345558,1.3077472275
 H,0,4.0205807311,1.1435743846,-2.1704258247
 C,0,-1.5800560984,-1.5240823429,1.022444224
 H,0,1.0989187138,-1.6250521755,1.321288642
 C,0,-2.7390847972,-1.248061377,-1.4154631322
 H,0,2.5607801573,-2.3399751453,1.3086715258
 C,0,-2.6668424962,1.5364496259,-1.1220273152
 H,0,1.1889907164,1.5937385589,1.459197539
 N,0,-4.9961371687,-0.0510248664,1.1486731273
 H,0,2.6308387685,1.474413001,2.2094133598
 N,0,-1.1948505085,-2.4183123658,1.6572634337
 H,0,3.6002279519,-2.3999739816,-0.9986328603
 N,0,-1.0649494239,1.9688700305,2.1035341446
 H,0,2.3287434382,-1.9086379392,-1.8829546424
 Recover connectivity data from disk.
                    Isotopes and Nuclear Properties:
 (Nuclear quadrupole moments (NQMom) in fm**2, nuclear magnetic moments (NMagM)
  in nuclear magnetons)

  Atom         1           2           3           4           5           6           7           8           9          10
 IAtWgt=          12          14          14          14         102           1          56           1          14           1
 AtmWgt=  12.0000000  14.0030740  14.0030740  14.0030740 101.9037000   1.0078250  55.9349393   1.0078250  14.0030740   1.0078250
 NucSpn=           0           2           2           2           0           1           0           1           2           1
 AtZEff=  -3.6000000  -4.5500000  -4.5500000  -4.5500000-221.7600000  -1.0000000 -13.9100000  -1.0000000  -4.5500000  -1.0000000
 NQMom=    0.0000000   2.0440000   2.0440000   2.0440000   0.0000000   0.0000000   0.0000000   0.0000000   2.0440000   0.0000000
 NMagM=    0.0000000   0.4037610   0.4037610   0.4037610   0.0000000   2.7928460   0.0000000   2.7928460   0.4037610   2.7928460

  Atom        11          12          13          14          15          16          17          18          19          20
 IAtWgt=          14           1          14           1          14           1          14           1          12           1
 AtmWgt=  14.0030740   1.0078250  14.0030740   1.0078250  14.0030740   1.0078250  14.0030740   1.0078250  12.0000000   1.0078250
 NucSpn=           2           1           2           1           2           1           2           1           0           1
 AtZEff=  -4.5500000  -1.0000000  -4.5500000  -1.0000000  -4.5500000  -1.0000000  -4.5500000  -1.0000000  -3.6000000  -1.0000000
 NQMom=    2.0440000   0.0000000   2.0440000   0.0000000   2.0440000   0.0000000   2.0440000   0.0000000   0.0000000   0.0000000
 NMagM=    0.4037610   2.7928460   0.4037610   2.7928460   0.4037610   2.7928460   0.4037610   2.7928460   0.0000000   2.7928460

  Atom        21          22          23          24          25          26          27          28          29          30
 IAtWgt=          12           1          12           1          12           1          12           1          14           1
 AtmWgt=  12.0000000   1.0078250  12.0000000   1.0078250  12.0000000   1.0078250  12.0000000   1.0078250  14.0030740   1.0078250
 NucSpn=           0           1           0           1           0           1           0           1           2           1
 AtZEff=  -3.6000000  -1.0000000  -3.6000000  -1.0000000  -3.6000000  -1.0000000  -3.6000000  -1.0000000  -4.5500000  -1.0000000
 NQMom=    0.0000000   0.0000000   0.0000000   0.0000000   0.0000000   0.0000000   0.0000000   0.0000000   2.0440000   0.0000000
 NMagM=    0.0000000   2.7928460   0.0000000   2.7928460   0.0000000   2.7928460   0.0000000   2.7928460   0.4037610   2.7928460

  Atom        31          32          33          34
 IAtWgt=          14           1          14           1
 AtmWgt=  14.0030740   1.0078250  14.0030740   1.0078250
 NucSpn=           2           1           2           1
 AtZEff=  -4.5500000  -1.0000000  -4.5500000  -1.0000000
 NQMom=    2.0440000   0.0000000   2.0440000   0.0000000
 NMagM=    0.4037610   2.7928460   0.4037610   2.7928460
 Leave Link  101 at Fri Apr 30 14:11:11 2010, MaxMem= 3221225472 cpu:       0.5
 (Enter /home/bin/gauss09A/g09/l103.exe)

 GradGradGradGradGradGradGradGradGradGradGradGradGradGradGradGradGradGrad
 Berny optimization.
 Initialization pass.
                           ----------------------------
                           !    Initial Parameters    !
                           ! (Angstroms and Degrees)  !
 --------------------------                            --------------------------
 ! Name  Definition              Value          Derivative Info.                !
 --------------------------------------------------------------------------------
 ! X5    R(5,-1)                 2.714          frozen, calculate D2E/DX2 analyt!
 ! Y5    R(5,-2)                 0.0013         frozen, calculate D2E/DX2 analyt!
 ! Z5    R(5,-3)                -0.0722         frozen, calculate D2E/DX2 analyt!
 ! X7    R(7,-1)                -2.1303         frozen, calculate D2E/DX2 analyt!
 ! Y7    R(7,-2)                 0.0013         frozen, calculate D2E/DX2 analyt!
 ! Z7    R(7,-3)                -0.0527         frozen, calculate D2E/DX2 analyt!
 ! R1    R(1,3)                  1.1593         calculate D2E/DX2 analytically  !
 ! R2    R(1,7)                  1.9075         calculate D2E/DX2 analytically  !
 ! R3    R(2,27)                 1.1617         calculate D2E/DX2 analytically  !
 ! R4    R(3,5)                  1.9725         calculate D2E/DX2 analytically  !
 ! R5    R(4,25)                 1.1618         calculate D2E/DX2 analytically  !
 ! R6    R(5,9)                  2.1586         calculate D2E/DX2 analytically  !
 ! R7    R(5,11)                 2.1411         calculate D2E/DX2 analytically  !
 ! R8    R(5,13)                 2.1435         calculate D2E/DX2 analytically  !
 ! R9    R(5,15)                 2.1427         calculate D2E/DX2 analytically  !
 ! R10   R(5,17)                 2.1417         calculate D2E/DX2 analytically  !
 ! R11   R(6,9)                  1.0161         calculate D2E/DX2 analytically  !
 ! R12   R(7,19)                 1.9463         calculate D2E/DX2 analytically  !
 ! R13   R(7,21)                 1.9461         calculate D2E/DX2 analytically  !
 ! R14   R(7,23)                 1.9456         calculate D2E/DX2 analytically  !
 ! R15   R(7,25)                 1.9465         calculate D2E/DX2 analytically  !
 ! R16   R(7,27)                 1.9463         calculate D2E/DX2 analytically  !
 ! R17   R(8,9)                  1.0162         calculate D2E/DX2 analytically  !
 ! R18   R(9,10)                 1.016          calculate D2E/DX2 analytically  !
 ! R19   R(11,12)                1.0159         calculate D2E/DX2 analytically  !
 ! R20   R(11,20)                1.0164         calculate D2E/DX2 analytically  !
 ! R21   R(11,22)                1.0162         calculate D2E/DX2 analytically  !
 ! R22   R(13,14)                1.0163         calculate D2E/DX2 analytically  !
 ! R23   R(13,24)                1.0204         calculate D2E/DX2 analytically  !
 ! R24   R(13,26)                1.0162         calculate D2E/DX2 analytically  !
 ! R25   R(15,16)                1.0162         calculate D2E/DX2 analytically  !
 ! R26   R(15,28)                1.021          calculate D2E/DX2 analytically  !
 ! R27   R(15,30)                1.0162         calculate D2E/DX2 analytically  !
 ! R28   R(17,18)                1.0163         calculate D2E/DX2 analytically  !
 ! R29   R(17,32)                1.0163         calculate D2E/DX2 analytically  !
 ! R30   R(17,34)                1.016          calculate D2E/DX2 analytically  !
 ! R31   R(19,29)                1.1616         calculate D2E/DX2 analytically  !
 ! R32   R(21,33)                1.1624         calculate D2E/DX2 analytically  !
 ! R33   R(23,31)                1.1623         calculate D2E/DX2 analytically  !
 ! A1    A(3,1,7)              162.8447         calculate D2E/DX2 analytically  !
 ! A2    A(1,3,5)              160.6965         calculate D2E/DX2 analytically  !
 ! A3    A(3,5,11)              91.9676         calculate D2E/DX2 analytically  !
 ! A4    A(3,5,13)              86.9857         calculate D2E/DX2 analytically  !
 ! A5    A(3,5,15)              87.5846         calculate D2E/DX2 analytically  !
 ! A6    A(3,5,17)              91.1736         calculate D2E/DX2 analytically  !
 ! A7    A(9,5,11)              90.5158         calculate D2E/DX2 analytically  !
 ! A8    A(9,5,13)              90.5138         calculate D2E/DX2 analytically  !
 ! A9    A(9,5,15)              90.2078         calculate D2E/DX2 analytically  !
 ! A10   A(9,5,17)              91.0003         calculate D2E/DX2 analytically  !
 ! A11   A(11,5,15)             90.3555         calculate D2E/DX2 analytically  !
 ! A12   A(11,5,17)             90.4379         calculate D2E/DX2 analytically  !
 ! A13   A(13,5,15)             89.1707         calculate D2E/DX2 analytically  !
 ! A14   A(13,5,17)             90.0141         calculate D2E/DX2 analytically  !
 ! A15   A(1,7,19)             175.8675         calculate D2E/DX2 analytically  !
 ! A16   A(1,7,21)              84.6261         calculate D2E/DX2 analytically  !
 ! A17   A(1,7,23)              85.2061         calculate D2E/DX2 analytically  !
 ! A18   A(1,7,25)              94.7945         calculate D2E/DX2 analytically  !
 ! A19   A(1,7,27)              94.457          calculate D2E/DX2 analytically  !
 ! A20   A(19,7,21)             92.3278         calculate D2E/DX2 analytically  !
 ! A21   A(19,7,23)             92.0842         calculate D2E/DX2 analytically  !
 ! A22   A(19,7,25)             88.2382         calculate D2E/DX2 analytically  !
 ! A23   A(19,7,27)             88.2303         calculate D2E/DX2 analytically  !
 ! A24   A(21,7,23)             91.288          calculate D2E/DX2 analytically  !
 ! A25   A(21,7,27)             88.2795         calculate D2E/DX2 analytically  !
 ! A26   A(23,7,25)             88.4022         calculate D2E/DX2 analytically  !
 ! A27   A(25,7,27)             92.0275         calculate D2E/DX2 analytically  !
 ! A28   A(5,9,6)              112.7557         calculate D2E/DX2 analytically  !
 ! A29   A(5,9,8)              113.4574         calculate D2E/DX2 analytically  !
 ! A30   A(5,9,10)             112.8809         calculate D2E/DX2 analytically  !
 ! A31   A(6,9,8)              105.7057         calculate D2E/DX2 analytically  !
 ! A32   A(6,9,10)             105.6804         calculate D2E/DX2 analytically  !
 ! A33   A(8,9,10)             105.6774         calculate D2E/DX2 analytically  !
 ! A34   A(5,11,12)            110.0019         calculate D2E/DX2 analytically  !
 ! A35   A(5,11,20)            114.1322         calculate D2E/DX2 analytically  !
 ! A36   A(5,11,22)            114.3978         calculate D2E/DX2 analytically  !
 ! A37   A(12,11,20)           106.0742         calculate D2E/DX2 analytically  !
 ! A38   A(12,11,22)           106.1983         calculate D2E/DX2 analytically  !
 ! A39   A(20,11,22)           105.3991         calculate D2E/DX2 analytically  !
 ! A40   A(5,13,14)            113.7229         calculate D2E/DX2 analytically  !
 ! A41   A(5,13,24)            110.8857         calculate D2E/DX2 analytically  !
 ! A42   A(5,13,26)            114.1819         calculate D2E/DX2 analytically  !
 ! A43   A(14,13,24)           105.8008         calculate D2E/DX2 analytically  !
 ! A44   A(14,13,26)           105.5113         calculate D2E/DX2 analytically  !
 ! A45   A(24,13,26)           106.0772         calculate D2E/DX2 analytically  !
 ! A46   A(5,15,16)            113.8064         calculate D2E/DX2 analytically  !
 ! A47   A(5,15,28)            111.0734         calculate D2E/DX2 analytically  !
 ! A48   A(5,15,30)            113.8292         calculate D2E/DX2 analytically  !
 ! A49   A(16,15,28)           105.7638         calculate D2E/DX2 analytically  !
 ! A50   A(16,15,30)           105.4695         calculate D2E/DX2 analytically  !
 ! A51   A(28,15,30)           106.2549         calculate D2E/DX2 analytically  !
 ! A52   A(5,17,18)            114.6387         calculate D2E/DX2 analytically  !
 ! A53   A(5,17,32)            114.2779         calculate D2E/DX2 analytically  !
 ! A54   A(5,17,34)            109.5418         calculate D2E/DX2 analytically  !
 ! A55   A(18,17,32)           105.5694         calculate D2E/DX2 analytically  !
 ! A56   A(18,17,34)           106.0004         calculate D2E/DX2 analytically  !
 ! A57   A(32,17,34)           106.1614         calculate D2E/DX2 analytically  !
 ! A58   L(7,19,29,25,-1)      180.3338         calculate D2E/DX2 analytically  !
 ! A59   L(7,21,33,1,-1)       176.8613         calculate D2E/DX2 analytically  !
 ! A60   L(7,23,31,1,-1)       177.2087         calculate D2E/DX2 analytically  !
 ! A61   L(4,25,7,23,-1)       180.2525         calculate D2E/DX2 analytically  !
 ! A62   L(2,27,7,21,-1)       180.1705         calculate D2E/DX2 analytically  !
 ! A63   L(7,19,29,25,-2)      179.4773         calculate D2E/DX2 analytically  !
 ! A64   L(7,21,33,1,-2)       180.938          calculate D2E/DX2 analytically  !
 ! A65   L(7,23,31,1,-2)       178.7993         calculate D2E/DX2 analytically  !
 ! A66   L(4,25,7,23,-2)       179.4715         calculate D2E/DX2 analytically  !
 ! A67   L(2,27,7,21,-2)       180.4704         calculate D2E/DX2 analytically  !
 ! D1    D(7,1,3,5)              0.3189         calculate D2E/DX2 analytically  !
 ! D2    D(3,1,7,19)            -0.7636         calculate D2E/DX2 analytically  !
 ! D3    D(3,1,7,21)            41.8554         calculate D2E/DX2 analytically  !
 ! D4    D(3,1,7,23)           -49.895          calculate D2E/DX2 analytically  !
 ! D5    D(3,1,7,25)          -137.8827         calculate D2E/DX2 analytically  !
 ! D6    D(3,1,7,27)           129.7016         calculate D2E/DX2 analytically  !
 ! D7    D(1,3,5,11)          -139.6694         calculate D2E/DX2 analytically  !
 ! D8    D(1,3,5,13)            39.8997         calculate D2E/DX2 analytically  !
 ! D9    D(1,3,5,15)           -49.3965         calculate D2E/DX2 analytically  !
 ! D10   D(1,3,5,17)           129.852          calculate D2E/DX2 analytically  !
 ! D11   D(1,3,9,6)            -94.4534         calculate D2E/DX2 analytically  !
 ! D12   D(1,3,9,8)             24.7253         calculate D2E/DX2 analytically  !
 ! D13   D(1,3,9,10)           144.8194         calculate D2E/DX2 analytically  !
 ! D14   D(11,5,9,6)            44.4897         calculate D2E/DX2 analytically  !
 ! D15   D(11,5,9,8)           164.6223         calculate D2E/DX2 analytically  !
 ! D16   D(11,5,9,10)          -75.1889         calculate D2E/DX2 analytically  !
 ! D17   D(13,5,9,6)          -135.0402         calculate D2E/DX2 analytically  !
 ! D18   D(13,5,9,8)           -14.9076         calculate D2E/DX2 analytically  !
 ! D19   D(13,5,9,10)          105.2812         calculate D2E/DX2 analytically  !
 ! D20   D(15,5,9,6)           -45.8677         calculate D2E/DX2 analytically  !
 ! D21   D(15,5,9,8)            74.2649         calculate D2E/DX2 analytically  !
 ! D22   D(15,5,9,10)         -165.5463         calculate D2E/DX2 analytically  !
 ! D23   D(17,5,9,6)           134.9367         calculate D2E/DX2 analytically  !
 ! D24   D(17,5,9,8)          -104.9307         calculate D2E/DX2 analytically  !
 ! D25   D(17,5,9,10)           15.2581         calculate D2E/DX2 analytically  !
 ! D26   D(3,5,11,12)           -2.6648         calculate D2E/DX2 analytically  !
 ! D27   D(3,5,11,20)          116.4097         calculate D2E/DX2 analytically  !
 ! D28   D(3,5,11,22)         -122.0767         calculate D2E/DX2 analytically  !
 ! D29   D(9,5,11,12)          179.5288         calculate D2E/DX2 analytically  !
 ! D30   D(9,5,11,20)          -61.3966         calculate D2E/DX2 analytically  !
 ! D31   D(9,5,11,22)           60.117          calculate D2E/DX2 analytically  !
 ! D32   D(15,5,11,12)         -90.2602         calculate D2E/DX2 analytically  !
 ! D33   D(15,5,11,20)          28.8144         calculate D2E/DX2 analytically  !
 ! D34   D(15,5,11,22)         150.328          calculate D2E/DX2 analytically  !
 ! D35   D(17,5,11,12)          88.5245         calculate D2E/DX2 analytically  !
 ! D36   D(17,5,11,20)        -152.401          calculate D2E/DX2 analytically  !
 ! D37   D(17,5,11,22)         -30.8874         calculate D2E/DX2 analytically  !
 ! D38   D(12,11,13,14)       -122.303          calculate D2E/DX2 analytically  !
 ! D39   D(12,11,13,24)         -3.5479         calculate D2E/DX2 analytically  !
 ! D40   D(12,11,13,26)        116.1218         calculate D2E/DX2 analytically  !
 ! D41   D(20,11,13,14)         -3.5676         calculate D2E/DX2 analytically  !
 ! D42   D(20,11,13,24)        115.1875         calculate D2E/DX2 analytically  !
 ! D43   D(20,11,13,26)       -125.1428         calculate D2E/DX2 analytically  !
 ! D44   D(22,11,13,14)        118.3506         calculate D2E/DX2 analytically  !
 ! D45   D(22,11,13,24)       -122.8943         calculate D2E/DX2 analytically  !
 ! D46   D(22,11,13,26)         -3.2245         calculate D2E/DX2 analytically  !
 ! D47   D(3,5,13,14)         -119.9896         calculate D2E/DX2 analytically  !
 ! D48   D(3,5,13,24)           -0.9098         calculate D2E/DX2 analytically  !
 ! D49   D(3,5,13,26)          118.8432         calculate D2E/DX2 analytically  !
 ! D50   D(9,5,13,14)           57.8355         calculate D2E/DX2 analytically  !
 ! D51   D(9,5,13,24)          176.9152         calculate D2E/DX2 analytically  !
 ! D52   D(9,5,13,26)          -63.3318         calculate D2E/DX2 analytically  !
 ! D53   D(15,5,13,14)         -32.3649         calculate D2E/DX2 analytically  !
 ! D54   D(15,5,13,24)          86.7148         calculate D2E/DX2 analytically  !
 ! D55   D(15,5,13,26)        -153.5322         calculate D2E/DX2 analytically  !
 ! D56   D(17,5,13,14)         148.836          calculate D2E/DX2 analytically  !
 ! D57   D(17,5,13,24)         -92.0843         calculate D2E/DX2 analytically  !
 ! D58   D(17,5,13,26)          27.6687         calculate D2E/DX2 analytically  !
 ! D59   D(3,5,15,16)          -98.8539         calculate D2E/DX2 analytically  !
 ! D60   D(3,5,15,28)           20.37           calculate D2E/DX2 analytically  !
 ! D61   D(3,5,15,30)          140.2454         calculate D2E/DX2 analytically  !
 ! D62   D(9,5,15,16)           83.6176         calculate D2E/DX2 analytically  !
 ! D63   D(9,5,15,28)         -157.1585         calculate D2E/DX2 analytically  !
 ! D64   D(9,5,15,30)          -37.2831         calculate D2E/DX2 analytically  !
 ! D65   D(11,5,15,16)          -6.8994         calculate D2E/DX2 analytically  !
 ! D66   D(11,5,15,28)         112.3244         calculate D2E/DX2 analytically  !
 ! D67   D(11,5,15,30)        -127.8002         calculate D2E/DX2 analytically  !
 ! D68   D(13,5,15,16)         174.1284         calculate D2E/DX2 analytically  !
 ! D69   D(13,5,15,28)         -66.6477         calculate D2E/DX2 analytically  !
 ! D70   D(13,5,15,30)          53.2277         calculate D2E/DX2 analytically  !
 ! D71   D(16,15,17,18)         13.7561         calculate D2E/DX2 analytically  !
 ! D72   D(16,15,17,32)        136.3437         calculate D2E/DX2 analytically  !
 ! D73   D(16,15,17,34)       -105.135          calculate D2E/DX2 analytically  !
 ! D74   D(28,15,17,18)        132.783          calculate D2E/DX2 analytically  !
 ! D75   D(28,15,17,32)       -104.6294         calculate D2E/DX2 analytically  !
 ! D76   D(28,15,17,34)         13.892          calculate D2E/DX2 analytically  !
 ! D77   D(30,15,17,18)       -107.6978         calculate D2E/DX2 analytically  !
 ! D78   D(30,15,17,32)         14.8898         calculate D2E/DX2 analytically  !
 ! D79   D(30,15,17,34)        133.4112         calculate D2E/DX2 analytically  !
 ! D80   D(3,5,17,18)          112.5852         calculate D2E/DX2 analytically  !
 ! D81   D(3,5,17,32)         -125.3542         calculate D2E/DX2 analytically  !
 ! D82   D(3,5,17,34)           -6.4001         calculate D2E/DX2 analytically  !
 ! D83   D(9,5,17,18)          -69.9153         calculate D2E/DX2 analytically  !
 ! D84   D(9,5,17,32)           52.1452         calculate D2E/DX2 analytically  !
 ! D85   D(9,5,17,34)          171.0993         calculate D2E/DX2 analytically  !
 ! D86   D(11,5,17,18)          20.6081         calculate D2E/DX2 analytically  !
 ! D87   D(11,5,17,32)         142.6687         calculate D2E/DX2 analytically  !
 ! D88   D(11,5,17,34)         -98.3772         calculate D2E/DX2 analytically  !
 ! D89   D(13,5,17,18)        -160.4294         calculate D2E/DX2 analytically  !
 ! D90   D(13,5,17,32)         -38.3688         calculate D2E/DX2 analytically  !
 ! D91   D(13,5,17,34)          80.5852         calculate D2E/DX2 analytically  !
 --------------------------------------------------------------------------------
 Trust Radius=3.00D-01 FncErr=1.00D-07 GrdErr=1.00D-07
 Number of steps in this run=   2 maximum allowed number of steps=   2.
 GradGradGradGradGradGradGradGradGradGradGradGradGradGradGradGradGradGrad

 Leave Link  103 at Fri Apr 30 14:11:11 2010, MaxMem= 3221225472 cpu:       0.1
 (Enter /home/bin/gauss09A/g09/l202.exe)
                          Input orientation:                          
 ---------------------------------------------------------------------
 Center     Atomic      Atomic             Coordinates (Angstroms)
 Number     Number       Type             X           Y           Z
 ---------------------------------------------------------------------
      1          6           0       -0.320793    0.025730   -0.655669
      2          7           0       -2.982072    2.450715   -1.765730
      3          7           0        0.838202    0.027425   -0.681696
      4          7           0       -3.097002   -1.989588   -2.235039
      5         44           0        2.713986    0.001290   -0.072245
      6          1           0        5.120333    0.900044    0.816842
      7         26           0       -2.130326    0.001294   -0.052669
      8          1           0        4.794677   -0.463428    1.628629
      9          7           0        4.724722   -0.030048    0.712196
     10          1           0        5.372824   -0.538837    0.117689
     11          7           0        3.287719    1.452745   -1.537927
     12          1           0        2.491131    1.690580   -2.121835
     13          7           0        2.099582   -1.438288    1.392239
     14          1           0        2.258103   -1.139709    2.350722
     15          7           0        2.196473    1.567360    1.295464
     16          1           0        2.447568    2.496429    0.969253
     17          7           0        3.180809   -1.583541   -1.435044
     18          1           0        3.811259   -1.322712   -2.188230
     19          6           0       -3.927441   -0.030566    0.693844
     20          1           0        3.621276    2.329350   -1.146292
     21          6           0       -1.501623    1.242735    1.307747
     22          1           0        4.020581    1.143574   -2.170426
     23          6           0       -1.580056   -1.524082    1.022444
     24          1           0        1.098919   -1.625052    1.321289
     25          6           0       -2.739085   -1.248061   -1.415463
     26          1           0        2.560780   -2.339975    1.308672
     27          6           0       -2.666842    1.536450   -1.122027
     28          1           0        1.188991    1.593739    1.459198
     29          7           0       -4.996137   -0.051025    1.148673
     30          1           0        2.630839    1.474413    2.209413
     31          7           0       -1.194851   -2.418312    1.657263
     32          1           0        3.600228   -2.399974   -0.998633
     33          7           0       -1.064949    1.968870    2.103534
     34          1           0        2.328743   -1.908638   -1.882955
 ---------------------------------------------------------------------
                    Distance matrix (angstroms):
                    1          2          3          4          5
     1  C    0.000000
     2  N    3.767651   0.000000
     3  N    1.159289   4.652092   0.000000
     4  N    3.776672   4.466514   4.686902   0.000000
     5  Ru   3.090447   6.427491   1.972480   6.512207   0.000000
     6  H    5.704258   8.644260   4.619927   9.229764   2.718224
     7  Fe   1.907515   3.108008   3.034553   3.108184   4.844351
     8  H    5.623640   8.971718   4.607845   8.918279   2.727309
     9  N    5.227943   8.466934   4.129319   8.585182   2.158563
    10  H    5.773568   9.071326   4.639230   8.909430   2.719785
    11  N    3.979461   6.352803   2.960541   7.286994   2.141055
    12  H    3.581659   5.537198   2.751773   6.692060   2.665367
    13  N    3.492205   7.135847   2.835595   6.361255   2.143500
    14  H    4.128842   7.569396   3.545966   7.101312   2.716703
    15  N    3.538385   6.080177   2.850519   7.289527   2.142667
    16  H    4.050746   6.079737   3.378116   7.818829   2.716876
    17  N    3.931716   7.373308   2.941182   6.341591   2.141689
    18  H    4.608784   7.782454   3.596051   6.940532   2.726607
    19  C    3.851268   3.619390   4.960527   3.620186   6.685541
    20  H    4.592089   6.633448   3.641457   8.060636   2.719673
    21  C    2.594313   3.619007   3.302975   5.054154   4.606182
    22  H    4.731975   7.135092   3.686413   7.776944   2.722934
    23  C    2.608396   5.053571   3.340545   3.623398   4.686566
    24  H    2.940923   6.541869   2.609713   5.512359   2.682418
    25  C    2.836894   3.723262   3.868109   1.161753   5.753355
    26  H    4.214102   7.945179   3.540257   6.685144   2.722485
    27  C    2.829083   1.161725   3.841404   3.722468   5.693160
    28  H    3.034923   5.341566   2.675783   6.697562   2.684552
    29  N    5.012024   4.336924   6.115220   4.337539   7.806367
    30  H    4.361136   6.946920   3.696732   8.034962   2.717162
    31  N    3.476633   6.214376   3.947869   4.353389   4.911688
    32  H    4.623426   8.212447   3.690732   6.822756   2.722074
    33  N    3.455830   4.344967   3.892133   6.214647   4.783904
    34  H    3.502578   6.871860   2.722697   5.437759   2.659869
                    6          7          8          9         10
     6  H    0.000000
     7  Fe   7.357707   0.000000
     8  H    1.619909   7.141316   0.000000
     9  N    1.016135   6.897658   1.016150   0.000000
    10  H    1.619551   7.524494   1.619531   1.016041   0.000000
    11  N    3.034616   5.802405   3.996214   3.053967   3.324925
    12  H    4.021626   5.337883   4.900210   3.997652   4.276671
    13  N    3.863135   4.695985   2.875721   3.055644   3.625962
    14  H    3.834807   5.131908   2.722680   3.162329   3.879300
    15  N    3.036997   4.794915   3.314478   3.046960   3.989038
    16  H    3.116945   5.312921   3.834638   3.410953   4.300595
    17  N    3.873104   5.712338   3.639412   3.067189   2.882241
    18  H    3.960401   6.451050   4.034092   3.304219   2.893131
    19  C    9.096339   1.946258   8.782741   8.652183   9.331946
    20  H    2.853767   6.300538   4.108122   3.199740   3.590552
    21  C    6.648964   1.946066   6.531259   6.382949   7.200573
    22  H    3.192574   6.604797   4.196963   3.191036   3.145558
    23  C    7.128385   1.945620   6.490738   6.486804   7.080383
    24  H    4.775181   3.867917   3.886188   4.007678   4.571081
    25  C    8.447958   1.946454   8.163315   7.856138   8.285929
    26  H    4.158237   5.416758   2.934979   3.220899   3.545438
    27  C    8.050114   1.946299   8.199994   7.775186   8.395233
    28  H    4.043425   3.979884   4.154710   3.961830   4.883849
    29  N   10.166495   3.107867   9.811243   9.730676  10.431502
    30  H    2.909766   5.473188   2.962218   2.981512   3.993366
    31  N    7.183268   3.107005   6.300543   6.452775   7.002647
    32  H    4.061623   6.284917   3.475547   3.131768   2.802160
    33  N    6.407471   3.107345   6.362140   6.281067   7.188679
    34  H    4.792762   5.184697   4.527768   4.000577   3.891703
                   11         12         13         14         15
    11  N    0.000000
    12  H    1.015906   0.000000
    13  N    4.284346   4.721424   0.000000
    14  H    4.785658   5.297981   1.016349   0.000000
    15  N    3.038431   3.432192   3.008766   2.906130   0.000000
    16  H    2.842724   3.194701   3.972657   3.894336   1.016185
    17  N    3.039909   3.415729   3.030459   3.921784   4.284013
    18  H    2.898301   3.290452   3.970259   4.800820   4.805848
    19  C    7.696723   7.217233   6.228518   6.498953   6.357486
    20  H    1.016403   1.623866   4.791116   5.110942   2.927946
    21  C    5.574922   5.282488   4.490400   4.571583   3.712336
    22  H    1.016232   1.625052   4.800920   5.362880   3.939462
    23  C    6.253978   6.065897   3.699168   4.079648   4.888121
    24  H    4.736961   4.978631   1.020413   1.624499   3.375913
    25  C    6.605431   6.040673   5.597506   6.258416   6.295669
    26  H    4.797530   5.293260   1.016232   1.618060   3.924304
    27  C    5.969655   5.256240   6.155437   6.593701   5.431119
    28  H    3.661597   3.811659   3.166519   3.067500   1.021041
    29  N    8.837500   8.353957   7.234159   7.433314   7.373897
    30  H    3.804540   4.338889   3.071455   2.644340   1.016177
    31  N    6.729618   6.689622   3.447314   3.746811   5.245718
    32  H    3.902813   4.384553   2.982122   3.822008   4.793031
    33  N    5.698451   5.529638   4.704139   4.557087   3.383942
    34  H    3.512488   3.610789   3.316721   4.303517   4.711943
                   16         17         18         19         20
    16  H    0.000000
    17  N    4.792122   0.000000
    18  H    5.139571   1.016262   0.000000
    19  C    6.863111   7.580970   8.358437   0.000000
    20  H    2.425085   3.948178   3.802537   8.120249   0.000000
    21  C    4.157215   6.118488   6.857849   2.807626   5.783350
    22  H    3.763265   2.946720   2.475217   8.529578   1.616898
    23  C    5.691142   5.358042   6.278157   2.801568   6.826875
    24  H    4.350792   3.454469   4.445776   5.310401   5.299862
    25  C    6.827111   5.929424   6.596192   2.709919   7.302364
    26  H    4.849621   2.912834   3.850564   6.914361   5.380901
    27  C    5.608227   6.635311   7.160823   2.709619   6.337959
    28  H    1.624473   4.736990   5.355904   5.422361   3.639466
    29  N    7.869591   8.711294   9.503807   1.161637   9.229998
    30  H    1.617437   4.789114   5.343835   6.897314   3.601756
    31  N    6.155912   5.422693   6.406972   3.754538   7.320881
    32  H    5.401477   1.016332   1.618694   8.071206   4.731676
    33  N    3.728631   6.570207   7.282250   3.765478   5.714195
    34  H    5.249173   1.016035   1.623070   7.021886   4.491532
                   21         22         23         24         25
    21  C    0.000000
    22  H    6.527040   0.000000
    23  C    2.782593   6.976958   0.000000
    24  H    3.871331   5.328553   2.697482   0.000000
    25  C    3.892461   7.209922   2.713471   4.728869   0.000000
    26  H    5.416542   5.135198   4.230146   1.627364   6.058197
    27  C    2.710684   6.780496   3.891879   5.490523   2.800861
    28  H    2.717635   4.625442   4.192753   3.223003   5.636424
    29  N    3.729712   9.682184   3.722290   6.297386   3.619665
    30  H    4.236026   4.606933   5.303914   3.569626   7.027637
    31  N    3.690465   7.385050   1.162336   2.450208   3.632602
    32  H    6.679640   3.755866   5.629146   3.498441   6.456589
    33  N    1.162426   6.694062   3.692534   4.267377   5.053189
    34  H    5.897748   3.501564   4.885483   3.443844   5.132036
                   26         27         28         29         30
    26  H    0.000000
    27  C    6.947158   0.000000
    28  H    4.168761   4.640415   0.000000
    29  N    7.897588   3.619637   6.407611   0.000000
    30  H    3.919924   6.258416   1.629720   7.850025   0.000000
    31  N    3.772587   5.052857   4.671026   4.506938   5.485807
    32  H    2.531345   7.401813   5.273020   9.166569   5.122709
    33  N    5.687167   3.627299   2.374055   4.521722   3.730221
    34  H    3.228989   6.115842   4.973496   8.142197   5.318249
                   31         32         33         34
    31  N    0.000000
    32  H    5.481505   0.000000
    33  N    4.411734   7.104514   0.000000
    34  H    5.020819   1.624841   6.514930   0.000000
 Stoichiometry    C6H15FeN11Ru(1-,2)
 Framework group  C1[X(C6H15FeN11Ru)]
 Deg. of freedom    96
 Full point group                 C1      NOp   1
 Largest Abelian subgroup         C1      NOp   1
 Largest concise Abelian subgroup C1      NOp   1
                         Standard orientation:                         
 ---------------------------------------------------------------------
 Center     Atomic      Atomic             Coordinates (Angstroms)
 Number     Number       Type             X           Y           Z
 ---------------------------------------------------------------------
      1          6           0       -0.605853    0.019992    0.656919
      2          7           0       -3.272107   -2.319391    1.927180
      3          7           0        0.553025    0.020303    0.687765
      4          7           0       -3.388165    2.143128    2.076172
      5         44           0        2.431302    0.002854    0.085727
      6          1           0        4.841121   -0.957105   -0.726673
      7         26           0       -2.412888    0.000886    0.046285
      8          1           0        4.519049    0.344560   -1.635541
      9          7           0        4.445251   -0.021947   -0.690666
     10          1           0        5.090995    0.528265   -0.131542
     11          7           0        2.998746   -1.339618    1.654132
     12          1           0        2.199723   -1.535031    2.250321
     13          7           0        1.823180    1.333560   -1.480798
     14          1           0        1.985585    0.966990   -2.414723
     15          7           0        1.919132   -1.657384   -1.168193
     16          1           0        2.168717   -2.560620   -0.775124
     17          7           0        2.892807    1.681445    1.333195
     18          1           0        3.520109    1.475409    2.105743
     19          6           0       -4.206915   -0.021112   -0.707973
     20          1           0        3.333752   -2.242028    1.327785
     21          6           0       -1.778824   -1.334903   -1.218944
     22          1           0        3.729059   -0.985772    2.265822
     23          6           0       -1.857931    1.445245   -1.133244
     24          1           0        0.822268    1.524819   -1.427547
     25          6           0       -3.027017    1.344743    1.313399
     26          1           0        2.284194    2.238973   -1.460254
     27          6           0       -2.954071   -1.453638    1.220832
     28          1           0        0.912326   -1.695560   -1.333752
     29          7           0       -5.273729   -0.033467   -1.167487
     30          1           0        2.357266   -1.630210   -2.084662
     31          7           0       -1.469959    2.291660   -1.829007
     32          1           0        3.314162    2.464506    0.841051
     33          7           0       -1.339015   -2.116221   -1.958771
     34          1           0        2.038966    2.037748    1.753116
 ---------------------------------------------------------------------
 Rotational constants (GHZ):      0.4940412      0.1465869      0.1441763
 Leave Link  202 at Fri Apr 30 14:11:11 2010, MaxMem= 3221225472 cpu:       0.1
 (Enter /home/bin/gauss09A/g09/l301.exe)
 General basis read from cards:  (5D, 7F)
 Centers:   2  3  4  9 11 13 15 17 29 31 33  1 19 21 23 25 27  6  8 10
 Centers:  12 14 16 18 20 22 24 26 28 30 32 34
 TZVP
 ****
 Centers:   7
 MDF10
 ****
 Centers:   5
 MWB28
 ****
 Ernie: Thresh=  0.10000D-02 Tol=  0.10000D-05 Strict=F.
 ======================================================================================================
                                       Pseudopotential Parameters
 ======================================================================================================
  Center     Atomic      Valence      Angular      Power
  Number     Number     Electrons     Momentum     of R      Exponent        Coefficient   SO-Coeffient
 ======================================================================================================
    1          6
                                   No pseudopotential on this center.
    2          7
                                   No pseudopotential on this center.
    3          7
                                   No pseudopotential on this center.
    4          7
                                   No pseudopotential on this center.
    5         44           16
                                      G and up 
                                                     2        1.0000000        0.00000000    0.00000000
                                      S - G
                                                     2       11.1052690      209.82297100    0.00000000
                                                     2        5.4147450       30.65472600    0.00000000
                                      P - G
                                                     2        9.7712710      146.33618200    0.00000000
                                                     2        5.0739910       24.12787700    0.00000000
                                      D - G
                                                     2        7.6714230       67.51589700    0.00000000
                                                     2        4.1365650        9.87010400    0.00000000
                                      F - G
                                                     2       11.3600000      -28.34061600    0.00000000
                                                     2        5.6800000       -4.94462900    0.00000000
    6          1
                                   No pseudopotential on this center.
    7         26           16
                                      F and up 
                                                     2        1.0000000        0.00000000    0.00000000
                                      S - F
                                                     2       20.9300000      253.74958800    0.00000000
                                                     2        9.4450000       37.92284500    0.00000000
                                      P - F
                                                     2       21.7600000      161.03681200    0.00000000
                                                     2        9.1780000       27.65129800    0.00000000
                                      D - F
                                                     2       25.9000000      -24.43127600    0.00000000
                                                     2        8.8350000       -1.43425100    0.00000000
    8          1
                                   No pseudopotential on this center.
    9          7
                                   No pseudopotential on this center.
   10          1
                                   No pseudopotential on this center.
   11          7
                                   No pseudopotential on this center.
   12          1
                                   No pseudopotential on this center.
   13          7
                                   No pseudopotential on this center.
   14          1
                                   No pseudopotential on this center.
   15          7
                                   No pseudopotential on this center.
   16          1
                                   No pseudopotential on this center.
   17          7
                                   No pseudopotential on this center.
   18          1
                                   No pseudopotential on this center.
   19          6
                                   No pseudopotential on this center.
   20          1
                                   No pseudopotential on this center.
   21          6
                                   No pseudopotential on this center.
   22          1
                                   No pseudopotential on this center.
   23          6
                                   No pseudopotential on this center.
   24          1
                                   No pseudopotential on this center.
   25          6
                                   No pseudopotential on this center.
   26          1
                                   No pseudopotential on this center.
   27          6
                                   No pseudopotential on this center.
   28          1
                                   No pseudopotential on this center.
   29          7
                                   No pseudopotential on this center.
   30          1
                                   No pseudopotential on this center.
   31          7
                                   No pseudopotential on this center.
   32          1
                                   No pseudopotential on this center.
   33          7
                                   No pseudopotential on this center.
   34          1
                                   No pseudopotential on this center.
 ======================================================================================================
 There are   492 symmetry adapted basis functions of A   symmetry.
 Integral buffers will be    131072 words long.
 Raffenetti 2 integral format.
 Two-electron integral symmetry is turned on.
   492 basis functions,   855 primitive gaussians,   518 cartesian basis functions
    81 alpha electrons       80 beta electrons
       nuclear repulsion energy      1768.5330424219 Hartrees.
 IExCor= 1009 DFT=T Ex+Corr=PBE1PBE ExCW=0 ScaHFX=  0.250000
 ScaDFX=  0.750000  0.750000  1.000000  1.000000 ScalE2=  1.000000  1.000000
 IRadAn=      5 IRanWt=     -1 IRanGd=            0 ICorTp=0
 NAtoms=   34 NActive=   34 NUniq=   34 SFac= 7.50D-01 NAtFMM=   80 NAOKFM=F Big=F
 ------------------------------------------------------------------------------
 Polarizable Continuum Model (PCM)
 =================================
 Model                : PCM.
 Atomic radii         : UFF (Universal Force Field).
 Polarization charges : Total charges.
 Charge compensation  : None.
 Solution method      : Matrix inversion.
 Cavity type          : Scaled VdW (van der Waals Surface) (Alpha=1.100).
 Cavity algorithm     : GePol (No added spheres)
                        Default sphere list used, NSphG=   34.
                        Lebedev-Laikov grids with approx.  5.0 points / Ang**2.
                        Smoothing algorithm: Karplus/York (Gamma=1.0000).
                        Polarization charges: spherical gaussians, with
                                              point-specific exponents (IZeta= 3).
                        Self-potential: point-specific (ISelfS= 7).
                        Self-field    : sphere-specific E.n sum rule (ISelfD= 2).
 1st derivatives      : Analytical E(r).r(x)/FMM algorithm (CHGder, D1EAlg=3).
                        Cavity 1st derivative terms included.
 2nd derivatives      : Analytical E(r).r(xy)/FMM algorithm (CHGder, D2EAlg=3).
                        Cavity 2nd derivative terms included.
 Solvent              : Water, Eps=  78.355300 Eps(inf)=   1.777849
 ------------------------------------------------------------------------------
 GePol: Number of generator spheres                  =      34
 GePol: Total number of spheres                      =      34
 GePol: Number of exposed spheres                    =      32 ( 94.12%)
 GePol: Number of points                             =    2875
 GePol: Average weight of points                     =       0.14
 GePol: Minimum weight of points                     =   0.24D-10
 GePol: Maximum weight of points                     =    0.20577
 GePol: Number of points with low weight             =     146
 GePol: Fraction of low-weight points (<1% of avg)   =       5.08%
 GePol: Cavity surface area                          =    389.704 Ang**2
 GePol: Cavity volume                                =    426.608 Ang**3
 Leave Link  301 at Fri Apr 30 14:11:11 2010, MaxMem= 3221225472 cpu:       0.6
 (Enter /home/bin/gauss09A/g09/l302.exe)
 NPDir=0 NMtPBC=     1 NCelOv=     1 NCel=       1 NClECP=     1 NCelD=      1
         NCelK=      1 NCelE2=     1 NClLst=     1 CellRange=     0.0.
 One-electron integrals computed using PRISM.
   1 Symmetry operations used in ECPInt.
 ECPInt:  NShTT=   29403 NPrTT=   97021 LenC2=   25899 LenP2D=   59270.
 LDataN:  DoStor=T MaxTD1= 7 Len=  274
 NBasis=   492 RedAO= T  NBF=   492
 NBsUse=   492 1.00D-06 NBFU=   492
 Precomputing XC quadrature grid using
 IXCGrd= 2 IRadAn=           5 IRanWt=          -1 IRanGd=           0 AccXCQ= 1.00D-10.
 Defaulting to unpruned grid for atomic number  44.
 NRdTot=    2976 NPtTot=      836976 NUsed=      858263 NTot=      858295
 NSgBfM=   506   506   506   506   506 NAtAll=    34    34.
 Leave Link  302 at Fri Apr 30 14:11:13 2010, MaxMem= 3221225472 cpu:      13.4
 (Enter /home/bin/gauss09A/g09/l303.exe)
 DipDrv:  MaxL=1.
 Leave Link  303 at Fri Apr 30 14:11:13 2010, MaxMem= 3221225472 cpu:       0.9
 (Enter /home/bin/gauss09A/g09/l401.exe)
 Harris functional with IExCor= 1009 diagonalized for initial guess.
 ExpMin= 1.00D-02 ExpMax= 1.97D+04 ExpMxC= 6.73D+02 IAcc=3 IRadAn=         5 AccDes= 0.00D+00
 HarFok:  IExCor= 1009 AccDes= 0.00D+00 IRadAn=         5 IDoV= 1
 ScaDFX=  1.000000  1.000000  1.000000  1.000000
 Defaulting to unpruned grid for atomic number  44.
 Defaulting to unpruned grid for atomic number  44.
 Defaulting to unpruned grid for atomic number  44.
 Defaulting to unpruned grid for atomic number  44.
 Defaulting to unpruned grid for atomic number  44.
 Defaulting to unpruned grid for atomic number  44.
 Defaulting to unpruned grid for atomic number  44.
 Defaulting to unpruned grid for atomic number  44.
 FoFCou: FMM=F IPFlag=           0 FMFlag=      100000 FMFlg1=           0
         NFxFlg=           0 DoJE=T BraDBF=F KetDBF=T FulRan=T
         Omega=  0.000000  0.000000  1.000000  0.000000  0.000000 ICntrl=     500 IOpCl=  0
         NMat0=    1 NMatS0=    1 NMatT0=    0 NMatD0=    1 NMtDS0=    0 NMtDT0=    0
         I1Cent=           4 NGrid=           0.
 Petite list used in FoFCou.
 Harris En= -1063.51190218685    
 Initial guess orbital symmetries:
 Alpha Orbitals:
       Occupied  (A) (A) (A) (A) (A) (A) (A) (A) (A) (A) (A) (A)
                 (A) (A) (A) (A) (A) (A) (A) (A) (A) (A) (A) (A)
                 (A) (A) (A) (A) (A) (A) (A) (A) (A) (A) (A) (A)
                 (A) (A) (A) (A) (A) (A) (A) (A) (A) (A) (A) (A)
                 (A) (A) (A) (A) (A) (A) (A) (A) (A) (A) (A) (A)
                 (A) (A) (A) (A) (A) (A) (A) (A) (A) (A) (A) (A)
                 (A) (A) (A) (A) (A) (A) (A) (A) (A)
       Virtual   (A) (A) (A) (A) (A) (A) (A) (A) (A) (A) (A) (A)
                 (A) (A) (A) (A) (A) (A) (A) (A) (A) (A) (A) (A)
                 (A) (A) (A) (A) (A) (A) (A) (A) (A) (A) (A) (A)
                 (A) (A) (A) (A) (A) (A) (A) (A) (A) (A) (A) (A)
                 (A) (A) (A) (A) (A) (A) (A) (A) (A) (A) (A) (A)
                 (A) (A) (A) (A) (A) (A) (A) (A) (A) (A) (A) (A)
                 (A) (A) (A) (A) (A) (A) (A) (A) (A) (A) (A) (A)
                 (A) (A) (A) (A) (A) (A) (A) (A) (A) (A) (A) (A)
                 (A) (A) (A) (A) (A) (A) (A) (A) (A) (A) (A) (A)
                 (A) (A) (A) (A) (A) (A) (A) (A) (A) (A) (A) (A)
                 (A) (A) (A) (A) (A) (A) (A) (A) (A) (A) (A) (A)
                 (A) (A) (A) (A) (A) (A) (A) (A) (A) (A) (A) (A)
                 (A) (A) (A) (A) (A) (A) (A) (A) (A) (A) (A) (A)
                 (A) (A) (A) (A) (A) (A) (A) (A) (A) (A) (A) (A)
                 (A) (A) (A) (A) (A) (A) (A) (A) (A) (A) (A) (A)
                 (A) (A) (A) (A) (A) (A) (A) (A) (A) (A) (A) (A)
                 (A) (A) (A) (A) (A) (A) (A) (A) (A) (A) (A) (A)
                 (A) (A) (A) (A) (A) (A) (A) (A) (A) (A) (A) (A)
                 (A) (A) (A) (A) (A) (A) (A) (A) (A) (A) (A) (A)
                 (A) (A) (A) (A) (A) (A) (A) (A) (A) (A) (A) (A)
                 (A) (A) (A) (A) (A) (A) (A) (A) (A) (A) (A) (A)
                 (A) (A) (A) (A) (A) (A) (A) (A) (A) (A) (A) (A)
                 (A) (A) (A) (A) (A) (A) (A) (A) (A) (A) (A) (A)
                 (A) (A) (A) (A) (A) (A) (A) (A) (A) (A) (A) (A)
                 (A) (A) (A) (A) (A) (A) (A) (A) (A) (A) (A) (A)
                 (A) (A) (A) (A) (A) (A) (A) (A) (A) (A) (A) (A)
                 (A) (A) (A) (A) (A) (A) (A) (A) (A) (A) (A) (A)
                 (A) (A) (A) (A) (A) (A) (A) (A) (A) (A) (A) (A)
                 (A) (A) (A) (A) (A) (A) (A) (A) (A) (A) (A) (A)
                 (A) (A) (A) (A) (A) (A) (A) (A) (A) (A) (A) (A)
                 (A) (A) (A) (A) (A) (A) (A) (A) (A) (A) (A) (A)
                 (A) (A) (A) (A) (A) (A) (A) (A) (A) (A) (A) (A)
                 (A) (A) (A) (A) (A) (A) (A) (A) (A) (A) (A) (A)
                 (A) (A) (A) (A) (A) (A) (A) (A) (A) (A) (A) (A)
                 (A) (A) (A)
 Beta  Orbitals:
       Occupied  (A) (A) (A) (A) (A) (A) (A) (A) (A) (A) (A) (A)
                 (A) (A) (A) (A) (A) (A) (A) (A) (A) (A) (A) (A)
                 (A) (A) (A) (A) (A) (A) (A) (A) (A) (A) (A) (A)
                 (A) (A) (A) (A) (A) (A) (A) (A) (A) (A) (A) (A)
                 (A) (A) (A) (A) (A) (A) (A) (A) (A) (A) (A) (A)
                 (A) (A) (A) (A) (A) (A) (A) (A) (A) (A) (A) (A)
                 (A) (A) (A) (A) (A) (A) (A) (A)
       Virtual   (A) (A) (A) (A) (A) (A) (A) (A) (A) (A) (A) (A)
                 (A) (A) (A) (A) (A) (A) (A) (A) (A) (A) (A) (A)
                 (A) (A) (A) (A) (A) (A) (A) (A) (A) (A) (A) (A)
                 (A) (A) (A) (A) (A) (A) (A) (A) (A) (A) (A) (A)
                 (A) (A) (A) (A) (A) (A) (A) (A) (A) (A) (A) (A)
                 (A) (A) (A) (A) (A) (A) (A) (A) (A) (A) (A) (A)
                 (A) (A) (A) (A) (A) (A) (A) (A) (A) (A) (A) (A)
                 (A) (A) (A) (A) (A) (A) (A) (A) (A) (A) (A) (A)
                 (A) (A) (A) (A) (A) (A) (A) (A) (A) (A) (A) (A)
                 (A) (A) (A) (A) (A) (A) (A) (A) (A) (A) (A) (A)
                 (A) (A) (A) (A) (A) (A) (A) (A) (A) (A) (A) (A)
                 (A) (A) (A) (A) (A) (A) (A) (A) (A) (A) (A) (A)
                 (A) (A) (A) (A) (A) (A) (A) (A) (A) (A) (A) (A)
                 (A) (A) (A) (A) (A) (A) (A) (A) (A) (A) (A) (A)
                 (A) (A) (A) (A) (A) (A) (A) (A) (A) (A) (A) (A)
                 (A) (A) (A) (A) (A) (A) (A) (A) (A) (A) (A) (A)
                 (A) (A) (A) (A) (A) (A) (A) (A) (A) (A) (A) (A)
                 (A) (A) (A) (A) (A) (A) (A) (A) (A) (A) (A) (A)
                 (A) (A) (A) (A) (A) (A) (A) (A) (A) (A) (A) (A)
                 (A) (A) (A) (A) (A) (A) (A) (A) (A) (A) (A) (A)
                 (A) (A) (A) (A) (A) (A) (A) (A) (A) (A) (A) (A)
                 (A) (A) (A) (A) (A) (A) (A) (A) (A) (A) (A) (A)
                 (A) (A) (A) (A) (A) (A) (A) (A) (A) (A) (A) (A)
                 (A) (A) (A) (A) (A) (A) (A) (A) (A) (A) (A) (A)
                 (A) (A) (A) (A) (A) (A) (A) (A) (A) (A) (A) (A)
                 (A) (A) (A) (A) (A) (A) (A) (A) (A) (A) (A) (A)
                 (A) (A) (A) (A) (A) (A) (A) (A) (A) (A) (A) (A)
                 (A) (A) (A) (A) (A) (A) (A) (A) (A) (A) (A) (A)
                 (A) (A) (A) (A) (A) (A) (A) (A) (A) (A) (A) (A)
                 (A) (A) (A) (A) (A) (A) (A) (A) (A) (A) (A) (A)
                 (A) (A) (A) (A) (A) (A) (A) (A) (A) (A) (A) (A)
                 (A) (A) (A) (A) (A) (A) (A) (A) (A) (A) (A) (A)
                 (A) (A) (A) (A) (A) (A) (A) (A) (A) (A) (A) (A)
                 (A) (A) (A) (A) (A) (A) (A) (A) (A) (A) (A) (A)
                 (A) (A) (A) (A)
 The electronic state of the initial guess is 2-A.
 Initial guess <Sx>= 0.0000 <Sy>= 0.0000 <Sz>= 0.5000 <S**2>= 0.7500 S= 0.5000
 Leave Link  401 at Fri Apr 30 14:11:21 2010, MaxMem= 3221225472 cpu:      66.6
 (Enter /home/bin/gauss09A/g09/l508.exe)
 Direct SCF.
 Tight linear equation convergence will be used.
 UPBE1PBE wavefunction.
 Quadratic Convergence SCF Method.
 Line search only if initial step raises energy.
 Integral symmetry usage will be decided dynamically.
 ReadGW:  IGet=1 IStart=           2 Next=      857946 LGW=      857944.
 Pruned (  99, 590) grid will be used in CalDFT.
 Defaulting to unpruned grid for atomic number  44.
 Defaulting to unpruned grid for atomic number  44.
 Defaulting to unpruned grid for atomic number  44.
 Defaulting to unpruned grid for atomic number  44.
 Defaulting to unpruned grid for atomic number  44.
 Defaulting to unpruned grid for atomic number  44.
 Defaulting to unpruned grid for atomic number  44.
 Defaulting to unpruned grid for atomic number  44.
 Iteration   1 EE= -1048.44032180760                                    Grad=3.987D+00
 Gradient too large for Newton-Raphson -- use scaled steepest descent instead.
     ILin= 1 X=0.000D+00 Y=-1.048440321808D+03 DE= 0.00D+00
     ILin= 2 X=3.000D-01 Y=-1.053171201119D+03 DE=-4.73D+00
     ILin= 3 X=4.243D-01 Y=-1.051597825161D+03 DE=-3.16D+00
     An  expanding polynomial of degree  3 produced  0.2677
 Iteration   2 EE= -1053.26822377961     Delta-E=       -4.827901972008 Grad=2.224D+00
 Gradient too large for Newton-Raphson -- use scaled steepest descent instead.
     ILin= 1 X=0.000D+00 Y=-1.053268223780D+03 DE= 0.00D+00
     ILin= 2 X=2.121D-01 Y=-1.054729482054D+03 DE=-1.46D+00
     ILin= 3 X=3.000D-01 Y=-1.053934589021D+03 DE=-6.66D-01
     An  expanding polynomial of degree  3 produced  0.1709
 Iteration   3 EE= -1054.89929775656     Delta-E=       -1.631073976946 Grad=1.429D+00
 Gradient too large for Newton-Raphson -- use scaled steepest descent instead.
     ILin= 1 X=0.000D+00 Y=-1.054899297757D+03 DE= 0.00D+00
     ILin= 2 X=2.677D-01 Y=-1.055800791259D+03 DE=-9.01D-01
     ILin= 3 X=3.785D-01 Y=-1.055355802914D+03 DE=-4.57D-01
     An  expanding polynomial of degree  3 produced  0.2202
 Iteration   4 EE= -1055.83831021230     Delta-E=       -0.939012455743 Grad=1.516D+00
 Gradient too large for Newton-Raphson -- use scaled steepest descent instead.
     ILin= 1 X=0.000D+00 Y=-1.055838310212D+03 DE= 0.00D+00
     ILin= 2 X=2.202D-01 Y=-1.055594923232D+03 DE= 2.43D-01
     ILin= 3 X=1.557D-01 Y=-1.056113718033D+03 DE=-2.75D-01
     A contracting polynomial of degree  3 produced  0.0977
 Iteration   5 EE= -1056.27251718216     Delta-E=       -0.434206969865 Grad=1.003D+00
 Gradient too large for Newton-Raphson -- use scaled steepest descent instead.
     ILin= 1 X=0.000D+00 Y=-1.056272517182D+03 DE= 0.00D+00
     ILin= 2 X=2.202D-01 Y=-1.056675909702D+03 DE=-4.03D-01
     ILin= 3 X=3.114D-01 Y=-1.056700537221D+03 DE=-4.28D-01
     ILin= 4 X=4.404D-01 Y=-1.056579578759D+03 DE=-3.07D-01
     An  expanding polynomial of degree  4 produced  0.2913
 Iteration   6 EE= -1056.70285548610     Delta-E=       -0.430338303935 Grad=1.095D+00
 Gradient too large for Newton-Raphson -- use scaled steepest descent instead.
     ILin= 1 X=0.000D+00 Y=-1.056702855486D+03 DE= 0.00D+00
     ILin= 2 X=2.913D-01 Y=-1.056591762677D+03 DE= 1.11D-01
     ILin= 3 X=2.060D-01 Y=-1.056894721595D+03 DE=-1.92D-01
     A contracting polynomial of degree  3 produced  0.1332
 Iteration   7 EE= -1056.98098586456     Delta-E=       -0.278130378460 Grad=7.156D-01
 Gradient too large for Newton-Raphson -- use scaled steepest descent instead.
     ILin= 1 X=0.000D+00 Y=-1.056980985865D+03 DE= 0.00D+00
     ILin= 2 X=2.913D-01 Y=-1.057145102346D+03 DE=-1.64D-01
     ILin= 3 X=4.119D-01 Y=-1.056996572090D+03 DE=-1.56D-02
     An  expanding polynomial of degree  3 produced  0.2103
 Iteration   8 EE= -1057.17056514331     Delta-E=       -0.189579278751 Grad=7.234D-01
 Gradient too large for Newton-Raphson -- use scaled steepest descent instead.
     ILin= 1 X=0.000D+00 Y=-1.057170565143D+03 DE= 0.00D+00
     ILin= 2 X=2.103D-01 Y=-1.057303337031D+03 DE=-1.33D-01
     ILin= 3 X=2.974D-01 Y=-1.057243646615D+03 DE=-7.31D-02
     An  expanding polynomial of degree  3 produced  0.1765
 Iteration   9 EE= -1057.30901199590     Delta-E=       -0.138446852592 Grad=5.436D-01
 Gradient too large for Newton-Raphson -- use scaled steepest descent instead.
     ILin= 1 X=0.000D+00 Y=-1.057309011996D+03 DE= 0.00D+00
     ILin= 2 X=2.103D-01 Y=-1.057395036831D+03 DE=-8.60D-02
     ILin= 3 X=2.974D-01 Y=-1.057352188139D+03 DE=-4.32D-02
     An  expanding polynomial of degree  3 produced  0.1727
 Iteration  10 EE= -1057.39872140934     Delta-E=       -0.089709413442 Grad=4.877D-01
 Gradient too large for Newton-Raphson -- use scaled steepest descent instead.
     ILin= 1 X=0.000D+00 Y=-1.057398721409D+03 DE= 0.00D+00
     ILin= 2 X=1.765D-01 Y=-1.057485507891D+03 DE=-8.68D-02
     ILin= 3 X=2.496D-01 Y=-1.057496866365D+03 DE=-9.81D-02
     ILin= 4 X=3.529D-01 Y=-1.057490295112D+03 DE=-9.16D-02
     An  expanding polynomial of degree  4 produced  0.2748
 Iteration  11 EE= -1057.49764644364     Delta-E=       -0.098925034295 Grad=4.900D-01
 Gradient too large for Newton-Raphson -- use scaled steepest descent instead.
     ILin= 1 X=0.000D+00 Y=-1.057497646444D+03 DE= 0.00D+00
     ILin= 2 X=2.748D-01 Y=-1.057463244660D+03 DE= 3.44D-02
     ILin= 3 X=1.943D-01 Y=-1.057538895958D+03 DE=-4.12D-02
     A contracting polynomial of degree  3 produced  0.1224
 Iteration  12 EE= -1057.55927031430     Delta-E=       -0.061623870664 Grad=3.283D-01
 Gradient too large for Newton-Raphson -- use scaled steepest descent instead.
     ILin= 1 X=0.000D+00 Y=-1.057559270314D+03 DE= 0.00D+00
     ILin= 2 X=2.748D-01 Y=-1.057656997813D+03 DE=-9.77D-02
     ILin= 3 X=3.886D-01 Y=-1.057685716841D+03 DE=-1.26D-01
     ILin= 4 X=5.495D-01 Y=-1.057712770627D+03 DE=-1.54D-01
     ILin= 5 X=7.771D-01 Y=-1.057719406499D+03 DE=-1.60D-01
     ILin= 6 X=1.099D+00 Y=-1.057651349592D+03 DE=-9.21D-02
     An  expanding polynomial of degree  6 produced  0.7021
 Iteration  13 EE= -1057.72170908631     Delta-E=       -0.162438772006 Grad=4.481D-01
 Gradient too large for Newton-Raphson -- use scaled steepest descent instead.
     ILin= 1 X=0.000D+00 Y=-1.057721709086D+03 DE= 0.00D+00
     ILin= 2 X=7.021D-01 Y=-1.056022401979D+03 DE= 1.70D+00
     ILin= 3 X=4.965D-01 Y=-1.057022600678D+03 DE= 6.99D-01
     ILin= 4 X=3.511D-01 Y=-1.057481537182D+03 DE= 2.40D-01
     ILin= 5 X=2.482D-01 Y=-1.057675230198D+03 DE= 4.65D-02
     ILin= 6 X=1.755D-01 Y=-1.057748060297D+03 DE=-2.64D-02
     A contracting polynomial of degree  6 produced  0.1061
 Iteration  14 EE= -1057.77029429779     Delta-E=       -0.048585211478 Grad=1.698D-01
 Gradient too large for Newton-Raphson -- use scaled steepest descent instead.
     ILin= 1 X=0.000D+00 Y=-1.057770294298D+03 DE= 0.00D+00
     ILin= 2 X=7.021D-01 Y=-1.057885080787D+03 DE=-1.15D-01
     ILin= 3 X=9.930D-01 Y=-1.057893300142D+03 DE=-1.23D-01
     ILin= 4 X=1.404D+00 Y=-1.057854014522D+03 DE=-8.37D-02
     An  expanding polynomial of degree  4 produced  0.9355
 Iteration  15 EE= -1057.89401104725     Delta-E=       -0.123716749464 Grad=1.588D-01
 Gradient too large for Newton-Raphson -- use scaled steepest descent instead.
     ILin= 1 X=0.000D+00 Y=-1.057894011047D+03 DE= 0.00D+00
     ILin= 2 X=9.355D-01 Y=-1.057779314421D+03 DE= 1.15D-01
     ILin= 3 X=6.615D-01 Y=-1.057853490242D+03 DE= 4.05D-02
     ILin= 4 X=4.677D-01 Y=-1.057885431653D+03 DE= 8.58D-03
     ILin= 5 X=3.307D-01 Y=-1.057897882279D+03 DE=-3.87D-03
     A contracting polynomial of degree  5 produced  0.1928
 Iteration  16 EE= -1057.90204440380     Delta-E=       -0.008033356546 Grad=1.085D-01
 Gradient too large for Newton-Raphson -- use scaled steepest descent instead.
     ILin= 1 X=0.000D+00 Y=-1.057902044404D+03 DE= 0.00D+00
     ILin= 2 X=9.355D-01 Y=-1.057874895615D+03 DE= 2.71D-02
     ILin= 3 X=6.615D-01 Y=-1.057894528244D+03 DE= 7.52D-03
     ILin= 4 X=4.677D-01 Y=-1.057902698211D+03 DE=-6.54D-04
     A contracting polynomial of degree  4 produced  0.2431
 Iteration  17 EE= -1057.90604471006     Delta-E=       -0.004000306263 Grad=8.299D-02
 Gradient too large for Newton-Raphson -- use scaled steepest descent instead.
     ILin= 1 X=0.000D+00 Y=-1.057906044710D+03 DE= 0.00D+00
     ILin= 2 X=2.431D-01 Y=-1.057908634063D+03 DE=-2.59D-03
     ILin= 3 X=3.437D-01 Y=-1.057907645692D+03 DE=-1.60D-03
     An  expanding polynomial of degree  3 produced  0.2110
 Iteration  18 EE= -1057.90869345887     Delta-E=       -0.002648748810 Grad=7.012D-02
 Gradient too large for Newton-Raphson -- use scaled steepest descent instead.
     ILin= 1 X=0.000D+00 Y=-1.057908693459D+03 DE= 0.00D+00
     ILin= 2 X=2.431D-01 Y=-1.057911049899D+03 DE=-2.36D-03
     ILin= 3 X=3.437D-01 Y=-1.057910952039D+03 DE=-2.26D-03
     An  expanding polynomial of degree  3 produced  0.2777
 Iteration  19 EE= -1057.91108642730     Delta-E=       -0.002392968427 Grad=6.826D-02
 Gradient too large for Newton-Raphson -- use scaled steepest descent instead.
     ILin= 1 X=0.000D+00 Y=-1.057911086427D+03 DE= 0.00D+00
     ILin= 2 X=2.777D-01 Y=-1.057913006250D+03 DE=-1.92D-03
     ILin= 3 X=3.928D-01 Y=-1.057911576349D+03 DE=-4.90D-04
     An  expanding polynomial of degree  3 produced  0.2091
 Iteration  20 EE= -1057.91323351126     Delta-E=       -0.002147083958 Grad=5.599D-02
 Gradient too large for Newton-Raphson -- use scaled steepest descent instead.
     ILin= 1 X=0.000D+00 Y=-1.057913233511D+03 DE= 0.00D+00
     ILin= 2 X=2.777D-01 Y=-1.057915548157D+03 DE=-2.31D-03
     ILin= 3 X=3.928D-01 Y=-1.057915450995D+03 DE=-2.22D-03
     An  expanding polynomial of degree  3 produced  0.3172
 Iteration  21 EE= -1057.91558372184     Delta-E=       -0.002350210586 Grad=6.924D-02
 Gradient too large for Newton-Raphson -- use scaled steepest descent instead.
     ILin= 1 X=0.000D+00 Y=-1.057915583722D+03 DE= 0.00D+00
     ILin= 2 X=3.172D-01 Y=-1.057917359255D+03 DE=-1.78D-03
     ILin= 3 X=4.486D-01 Y=-1.057914480723D+03 DE= 1.10D-03
     An  expanding polynomial of degree  3 produced  0.2042
 Iteration  22 EE= -1057.91812455910     Delta-E=       -0.002540837260 Grad=5.432D-02
 Gradient too large for Newton-Raphson -- use scaled steepest descent instead.
     ILin= 1 X=0.000D+00 Y=-1.057918124559D+03 DE= 0.00D+00
     ILin= 2 X=3.172D-01 Y=-1.057921338438D+03 DE=-3.21D-03
     ILin= 3 X=4.486D-01 Y=-1.057921190494D+03 DE=-3.07D-03
     An  expanding polynomial of degree  3 produced  0.3604
 Iteration  23 EE= -1057.92138456181     Delta-E=       -0.003260002712 Grad=8.498D-02
 Gradient too large for Newton-Raphson -- use scaled steepest descent instead.
     ILin= 1 X=0.000D+00 Y=-1.057921384562D+03 DE= 0.00D+00
     ILin= 2 X=3.604D-01 Y=-1.057922250927D+03 DE=-8.66D-04
     ILin= 3 X=5.097D-01 Y=-1.057914443947D+03 DE= 6.94D-03
     An  expanding polynomial of degree  3 produced  0.1914
 Iteration  24 EE= -1057.92524438689     Delta-E=       -0.003859825078 Grad=5.985D-02
 Gradient too large for Newton-Raphson -- use scaled steepest descent instead.
     ILin= 1 X=0.000D+00 Y=-1.057925244387D+03 DE= 0.00D+00
     ILin= 2 X=3.604D-01 Y=-1.057930376811D+03 DE=-5.13D-03
     ILin= 3 X=5.097D-01 Y=-1.057930058837D+03 DE=-4.81D-03
     An  expanding polynomial of degree  3 produced  0.4019
 Iteration  25 EE= -1057.93043203562     Delta-E=       -0.005187648731 Grad=1.100D-01
 Gradient too large for Newton-Raphson -- use scaled steepest descent instead.
     ILin= 1 X=0.000D+00 Y=-1.057930432036D+03 DE= 0.00D+00
     ILin= 2 X=4.019D-01 Y=-1.057926735827D+03 DE= 3.70D-03
     ILin= 3 X=2.842D-01 Y=-1.057934113818D+03 DE=-3.68D-03
     A contracting polynomial of degree  3 produced  0.1765
 Iteration  26 EE= -1057.93623462445     Delta-E=       -0.005802588829 Grad=6.439D-02
 Gradient too large for Newton-Raphson -- use scaled steepest descent instead.
     ILin= 1 X=0.000D+00 Y=-1.057936234624D+03 DE= 0.00D+00
     ILin= 2 X=4.019D-01 Y=-1.057944218734D+03 DE=-7.98D-03
     ILin= 3 X=5.684D-01 Y=-1.057944094067D+03 DE=-7.86D-03
     An  expanding polynomial of degree  3 produced  0.4748
 Iteration  27 EE= -1057.94441526015     Delta-E=       -0.008180635698 Grad=1.405D-01
 Gradient too large for Newton-Raphson -- use scaled steepest descent instead.
     ILin= 1 X=0.000D+00 Y=-1.057944415260D+03 DE= 0.00D+00
     ILin= 2 X=4.748D-01 Y=-1.057918988834D+03 DE= 2.54D-02
     ILin= 3 X=3.358D-01 Y=-1.057941971906D+03 DE= 2.44D-03
     ILin= 4 X=2.374D-01 Y=-1.057950303841D+03 DE=-5.89D-03
     A contracting polynomial of degree  4 produced  0.1578
 Iteration  28 EE= -1057.95236183117     Delta-E=       -0.007946571019 Grad=6.287D-02
 Gradient too large for Newton-Raphson -- use scaled steepest descent instead.
     ILin= 1 X=0.000D+00 Y=-1.057952361831D+03 DE= 0.00D+00
     ILin= 2 X=4.748D-01 Y=-1.057961069248D+03 DE=-8.71D-03
     ILin= 3 X=6.715D-01 Y=-1.057960476592D+03 DE=-8.11D-03
     An  expanding polynomial of degree  3 produced  0.5258
 Iteration  29 EE= -1057.96115531752     Delta-E=       -0.008793486348 Grad=1.420D-01
 Gradient too large for Newton-Raphson -- use scaled steepest descent instead.
     ILin= 1 X=0.000D+00 Y=-1.057961155318D+03 DE= 0.00D+00
     ILin= 2 X=5.258D-01 Y=-1.057918876245D+03 DE= 4.23D-02
     ILin= 3 X=3.718D-01 Y=-1.057951060421D+03 DE= 1.01D-02
     ILin= 4 X=2.629D-01 Y=-1.057963717875D+03 DE=-2.56D-03
     A contracting polynomial of degree  4 produced  0.1468
 Iteration  30 EE= -1057.96824966011     Delta-E=       -0.007094342593 Grad=5.359D-02
 Gradient too large for Newton-Raphson -- use scaled steepest descent instead.
     ILin= 1 X=0.000D+00 Y=-1.057968249660D+03 DE= 0.00D+00
     ILin= 2 X=5.258D-01 Y=-1.057975356230D+03 DE=-7.11D-03
     ILin= 3 X=7.436D-01 Y=-1.057975439241D+03 DE=-7.19D-03
     ILin= 4 X=1.052D+00 Y=-1.057972698743D+03 DE=-4.45D-03
     An  expanding polynomial of degree  4 produced  0.6455
 Iteration  31 EE= -1057.97560943512     Delta-E=       -0.007359775007 Grad=1.307D-01
 Gradient too large for Newton-Raphson -- use scaled steepest descent instead.
     ILin= 1 X=0.000D+00 Y=-1.057975609435D+03 DE= 0.00D+00
     ILin= 2 X=6.455D-01 Y=-1.057906120514D+03 DE= 6.95D-02
     ILin= 3 X=4.564D-01 Y=-1.057951947586D+03 DE= 2.37D-02
     ILin= 4 X=3.227D-01 Y=-1.057971351228D+03 DE= 4.26D-03
     ILin= 5 X=2.282D-01 Y=-1.057978731659D+03 DE=-3.12D-03
     A contracting polynomial of degree  5 produced  0.1390
 Iteration  32 EE= -1057.98098539235     Delta-E=       -0.005375957237 Grad=4.164D-02
 Gradient too large for Newton-Raphson -- use scaled steepest descent instead.
     ILin= 1 X=0.000D+00 Y=-1.057980985392D+03 DE= 0.00D+00
     ILin= 2 X=6.455D-01 Y=-1.057986878955D+03 DE=-5.89D-03
     ILin= 3 X=9.129D-01 Y=-1.057987638875D+03 DE=-6.65D-03
     ILin= 4 X=1.291D+00 Y=-1.057987044680D+03 DE=-6.06D-03
     An  expanding polynomial of degree  4 produced  0.9867
 Iteration  33 EE= -1057.98767632787     Delta-E=       -0.006690935520 Grad=1.272D-01
 Gradient too large for Newton-Raphson -- use scaled steepest descent instead.
     ILin= 1 X=0.000D+00 Y=-1.057987676328D+03 DE= 0.00D+00
     ILin= 2 X=9.867D-01 Y=-1.057767506701D+03 DE= 2.20D-01
     ILin= 3 X=6.977D-01 Y=-1.057895294039D+03 DE= 9.24D-02
     ILin= 4 X=4.934D-01 Y=-1.057953201019D+03 DE= 3.45D-02
     ILin= 5 X=3.489D-01 Y=-1.057978367156D+03 DE= 9.31D-03
     ILin= 6 X=2.467D-01 Y=-1.057988484941D+03 DE=-8.09D-04
     A contracting polynomial of degree  6 produced  0.1297
 Iteration  34 EE= -1057.99246695316     Delta-E=       -0.004790625292 Grad=3.402D-02
 Gradient too large for Newton-Raphson -- use scaled steepest descent instead.
     ILin= 1 X=0.000D+00 Y=-1.057992466953D+03 DE= 0.00D+00
     ILin= 2 X=9.867D-01 Y=-1.057997227660D+03 DE=-4.76D-03
     ILin= 3 X=1.395D+00 Y=-1.057997539844D+03 DE=-5.07D-03
     ILin= 4 X=1.973D+00 Y=-1.057996426978D+03 DE=-3.96D-03
     An  expanding polynomial of degree  4 produced  1.3278
 Iteration  35 EE= -1057.99755183552     Delta-E=       -0.005084882358 Grad=1.168D-01
 Gradient too large for Newton-Raphson -- use scaled steepest descent instead.
     ILin= 1 X=0.000D+00 Y=-1.057997551836D+03 DE= 0.00D+00
     ILin= 2 X=1.328D+00 Y=-1.057609579063D+03 DE= 3.88D-01
     ILin= 3 X=9.389D-01 Y=-1.057825354671D+03 DE= 1.72D-01
     ILin= 4 X=6.639D-01 Y=-1.057925666118D+03 DE= 7.19D-02
     ILin= 5 X=4.694D-01 Y=-1.057971044249D+03 DE= 2.65D-02
     ILin= 6 X=3.319D-01 Y=-1.057990706516D+03 DE= 6.85D-03
     ILin= 7 X=2.347D-01 Y=-1.057998556567D+03 DE=-1.00D-03
     A contracting polynomial of degree  7 produced  0.1265
 Iteration  36 EE= -1058.00154066607     Delta-E=       -0.003988830549 Grad=2.776D-02
 Gradient too large for Newton-Raphson -- use scaled steepest descent instead.
     ILin= 1 X=0.000D+00 Y=-1.058001540666D+03 DE= 0.00D+00
     ILin= 2 X=1.328D+00 Y=-1.058005654333D+03 DE=-4.11D-03
     ILin= 3 X=1.878D+00 Y=-1.058005868440D+03 DE=-4.33D-03
     ILin= 4 X=2.656D+00 Y=-1.058004579370D+03 DE=-3.04D-03
     An  expanding polynomial of degree  4 produced  1.7327
 Iteration  37 EE= -1058.00589979249     Delta-E=       -0.004359126421 Grad=1.106D-01
 Gradient too large for Newton-Raphson -- use scaled steepest descent instead.
     ILin= 1 X=0.000D+00 Y=-1.058005899792D+03 DE= 0.00D+00
     ILin= 2 X=1.733D+00 Y=-1.057491356360D+03 DE= 5.15D-01
     ILin= 3 X=1.225D+00 Y=-1.057770246114D+03 DE= 2.36D-01
     ILin= 4 X=8.663D-01 Y=-1.057902731675D+03 DE= 1.03D-01
     ILin= 5 X=6.126D-01 Y=-1.057964172613D+03 DE= 4.17D-02
     ILin= 6 X=4.332D-01 Y=-1.057991756703D+03 DE= 1.41D-02
     ILin= 7 X=3.063D-01 Y=-1.058003475304D+03 DE= 2.42D-03
     ILin= 8 X=2.166D-01 Y=-1.058007932258D+03 DE=-2.03D-03
     A contracting polynomial of degree  8 produced  0.1332
 Iteration  38 EE= -1058.00927130852     Delta-E=       -0.003371516032 Grad=3.281D-02
 Gradient too large for Newton-Raphson -- use scaled steepest descent instead.
     ILin= 1 X=0.000D+00 Y=-1.058009271309D+03 DE= 0.00D+00
     ILin= 2 X=1.733D+00 Y=-1.058006117751D+03 DE= 3.15D-03
     ILin= 3 X=1.225D+00 Y=-1.058009283955D+03 DE=-1.26D-05
     A contracting polynomial of degree  3 produced  0.6140
 Iteration  39 EE= -1058.01070955474     Delta-E=       -0.001438246219 Grad=5.678D-02
 Gradient too large for Newton-Raphson -- use scaled steepest descent instead.
     ILin= 1 X=0.000D+00 Y=-1.058010709555D+03 DE= 0.00D+00
     ILin= 2 X=6.140D-01 Y=-1.058001950491D+03 DE= 8.76D-03
     ILin= 3 X=4.342D-01 Y=-1.058008457438D+03 DE= 2.25D-03
     ILin= 4 X=3.070D-01 Y=-1.058011060952D+03 DE=-3.51D-04
     A contracting polynomial of degree  4 produced  0.1657
 Iteration  40 EE= -1058.01205009253     Delta-E=       -0.001340537789 Grad=3.276D-02
 Gradient too large for Newton-Raphson -- use scaled steepest descent instead.
     ILin= 1 X=0.000D+00 Y=-1.058012050093D+03 DE= 0.00D+00
     ILin= 2 X=6.140D-01 Y=-1.058012986584D+03 DE=-9.36D-04
     ILin= 3 X=8.684D-01 Y=-1.058012166247D+03 DE=-1.16D-04
     An  expanding polynomial of degree  3 produced  0.4464
 Iteration  41 EE= -1058.01314475268     Delta-E=       -0.001094660149 Grad=5.595D-02
 Gradient too large for Newton-Raphson -- use scaled steepest descent instead.
     ILin= 1 X=0.000D+00 Y=-1.058013144753D+03 DE= 0.00D+00
     ILin= 2 X=4.464D-01 Y=-1.058011240293D+03 DE= 1.90D-03
     ILin= 3 X=3.157D-01 Y=-1.058013382519D+03 DE=-2.38D-04
     A contracting polynomial of degree  3 produced  0.1676
 Iteration  42 EE= -1058.01421674602     Delta-E=       -0.001071993343 Grad=3.346D-02
 Gradient too large for Newton-Raphson -- use scaled steepest descent instead.
     ILin= 1 X=0.000D+00 Y=-1.058014216746D+03 DE= 0.00D+00
     ILin= 2 X=4.464D-01 Y=-1.058015358151D+03 DE=-1.14D-03
     ILin= 3 X=6.313D-01 Y=-1.058015250465D+03 DE=-1.03D-03
     An  expanding polynomial of degree  3 produced  0.4803
 Iteration  43 EE= -1058.01536347641     Delta-E=       -0.001146730382 Grad=5.855D-02
 Gradient too large for Newton-Raphson -- use scaled steepest descent instead.
     ILin= 1 X=0.000D+00 Y=-1.058015363476D+03 DE= 0.00D+00
     ILin= 2 X=4.803D-01 Y=-1.058012113998D+03 DE= 3.25D-03
     ILin= 3 X=3.396D-01 Y=-1.058015158666D+03 DE= 2.05D-04
     ILin= 4 X=2.401D-01 Y=-1.058016258079D+03 DE=-8.95D-04
     A contracting polynomial of degree  4 produced  0.1633
 Iteration  44 EE= -1058.01651502978     Delta-E=       -0.001151553374 Grad=3.434D-02
 Gradient too large for Newton-Raphson -- use scaled steepest descent instead.
     ILin= 1 X=0.000D+00 Y=-1.058016515030D+03 DE= 0.00D+00
     ILin= 2 X=4.803D-01 Y=-1.058017778647D+03 DE=-1.26D-03
     ILin= 3 X=6.792D-01 Y=-1.058017691840D+03 DE=-1.18D-03
     An  expanding polynomial of degree  3 produced  0.5315
 Iteration  45 EE= -1058.01778991325     Delta-E=       -0.001274883467 Grad=6.420D-02
 Gradient too large for Newton-Raphson -- use scaled steepest descent instead.
     ILin= 1 X=0.000D+00 Y=-1.058017789913D+03 DE= 0.00D+00
     ILin= 2 X=5.315D-01 Y=-1.058011865079D+03 DE= 5.92D-03
     ILin= 3 X=3.758D-01 Y=-1.058016657067D+03 DE= 1.13D-03
     ILin= 4 X=2.657D-01 Y=-1.058018505846D+03 DE=-7.16D-04
     A contracting polynomial of degree  4 produced  0.1592
 Iteration  46 EE= -1058.01909280500     Delta-E=       -0.001302891753 Grad=3.593D-02
 Gradient too large for Newton-Raphson -- use scaled steepest descent instead.
     ILin= 1 X=0.000D+00 Y=-1.058019092805D+03 DE= 0.00D+00
     ILin= 2 X=5.315D-01 Y=-1.058020558315D+03 DE=-1.47D-03
     ILin= 3 X=7.516D-01 Y=-1.058020470123D+03 DE=-1.38D-03
     An  expanding polynomial of degree  3 produced  0.5939
 Iteration  47 EE= -1058.02057388584     Delta-E=       -0.001481080837 Grad=7.149D-02
 Gradient too large for Newton-Raphson -- use scaled steepest descent instead.
     ILin= 1 X=0.000D+00 Y=-1.058020573886D+03 DE= 0.00D+00
     ILin= 2 X=5.939D-01 Y=-1.058009572918D+03 DE= 1.10D-02
[...]
 ,-0.00000464,0.00001179,0.00001400,-0.00001847,0.00000025,-0.00000204,
 -0.00000136,-0.00002330,0.00001997,0.00001585,-0.00000026,0.00000152,-
 0.00000108,0.00000592,-0.00000841,-0.00000253,-0.00000016,0.00000047,-
 0.00000117,-0.01899356,-0.02933245,0.00756539,0.00000099,-0.00000105,-
 0.00000172,0.00101663,0.00055779,0.00027213,-0.00000026,0.00000087,0.0
 0000102,-0.00110175,0.00061830,-0.00001944,-0.00004974,-0.00001264,-0.
 00000268,-0.00106824,-0.00000992,0.00037338,-0.00000090,0.00000265,-0.
 00000037,0.00124335,0.00016733,-0.00055465,0.00007394,-0.00000978,-0.0
 0000759,0.01930692,0.01649296,0.00002508,-0.00018955,-0.00077725,-0.00
 008509,0.00075522,-0.00060217,0.00079737,0.00000033,0.00010339,-0.0000
 5655,-0.00060501,-0.00076907,0.00002036,0.00001628,0.00003678,0.000006
 89,-0.00000344,0.00000343,0.00786346,0.00052776,0.00721897,0.00000501,
 -0.00000170,0.00000059,0.00006483,0.00000257,0.00002339,0.00000711,-0.
 00000084,0.00000831,0.00000426,0.00001508,-0.00001122,-0.00001296,-0.0
 0000820,0.00000708,0.00003055,-0.00000868,0.00000794,0.00000677,-0.000
 00344,-0.00000203,0.00004034,0.00000961,0.00000212,0.00000511,-0.00000
 291,0.00000167,0.00000079,-0.00001412,-0.00000817,0.00000102,-0.000003
 48,-0.00000199,0.42073640,0.00758246,-0.20350805,0.00000161,0.00000086
 ,-0.00000103,0.00004856,-0.00009835,-0.00105726,0.00000053,0.00000369,
 -0.00000257,-0.00013254,0.00040419,-0.00104529,-0.00013023,0.00000171,
 -0.00003007,-0.00078930,0.00075877,0.00152166,0.00000839,0.00000419,0.
 00000594,-0.00058378,-0.00100490,0.00121294,-0.00013538,-0.00001570,-0
 .00001190,-0.42825824,-0.00797795,0.19630062,0.00027341,0.00006240,0.0
 0009346,-0.00000586,0.00001494,-0.00000982,-0.00022841,-0.00004929,-0.
 00022347,-0.00000348,-0.00001050,-0.00001306,0.00298669,-0.00230122,0.
 00479807,-0.00105462,-0.00013709,0.00041000,-0.00000394,0.00001916,0.0
 0002495,-0.00084721,0.00072563,0.00005115,0.00036389,-0.00043487,-0.00
 051673,0.00010134,-0.00007636,-0.00002063,-0.00022962,0.00033342,0.000
 25680,0.00001310,0.00002091,-0.00007495,-0.00006019,-0.00020493,-0.000
 10623,0.00044053,-0.00022722,0.00003029,-0.12096734,0.01063886,-0.1346
 8036,0.00464540,-0.00164497,0.01140474,-0.00046894,0.00091769,-0.00026
 909,0.00001769,-0.00004505,-0.00004356,-0.00000142,0.00000141,-0.00001
 122,0.00022089,0.00001685,-0.00020975,-0.00002268,0.00007932,0.0001387
 5,0.00003163,-0.00000340,0.00007974,-0.00000049,0.00002966,-0.00001919
 ,-0.00001935,-0.00005929,-0.00004330,-0.00000719,-0.00000905,-0.000004
 92,0.00002292,-0.00001095,0.00004658,0.00000608,-0.00001404,0.00001218
 ,-0.01499829,0.00546497,-0.03837074,-0.00001672,-0.00000064,0.00001060
 ,0.12996058,0.00015022,0.00004383,0.00004408,-0.00000840,0.00002176,-0
 .00001606,0.00031579,-0.00073375,-0.00050410,-0.00000764,-0.00001325,-
 0.00001773,-0.00668491,0.00263575,-0.01100516,0.00034652,0.00014827,0.
 00005827,0.00004627,0.00002681,0.00000998,0.00098518,-0.00061753,-0.00
 007987,-0.00020354,0.00105363,0.00075502,-0.00021707,-0.00007274,-0.00
 001551,0.00004060,-0.00017544,-0.00003628,-0.00000914,-0.00003995,0.00
 003565,-0.00022073,0.00088193,0.00003617,-0.00046966,-0.00202184,0.001
 09527,-0.00132113,-0.04465511,0.02285068,0.01827395,-0.00508481,0.0341
 7913,0.00134251,-0.00154666,0.00060602,0.00003364,-0.00001281,0.000061
 61,-0.00001613,0.00000311,0.00001389,0.00011954,-0.00007809,-0.0002017
 1,-0.00000170,-0.00000010,-0.00001338,0.00003642,0.00001714,-0.0000097
 6,-0.00002461,0.00005455,-0.00004104,-0.00017977,0.00003773,0.00007731
 ,0.00001335,-0.00000479,0.00001464,0.00025487,0.00018286,0.00018698,0.
 00001575,-0.00002243,0.00002643,0.00042955,-0.00165214,-0.00111346,-0.
 00001620,-0.00000039,0.00000676,-0.01311727,0.05178945,-0.00000320,0.0
 0007407,-0.00000039,0.00000189,-0.00000826,0.00000379,0.00028695,-0.00
 018834,-0.00015995,-0.00000245,-0.00000445,-0.00000398,-0.00267715,-0.
 00061507,-0.00794320,0.00088079,-0.00028109,-0.00006895,0.00002591,0.0
 0000265,0.00000279,0.00042324,-0.00028644,0.00007616,0.00001794,0.0007
 3719,0.00073236,-0.00012118,0.00003478,-0.00017509,0.00005050,-0.00036
 009,-0.00017908,-0.00001874,-0.00001978,0.00003970,-0.00014043,0.00011
 209,0.00068312,-0.00006264,-0.00019099,0.00015956,-0.15472043,0.052465
 60,-0.35215837,-0.00648282,-0.00154703,-0.01317878,0.00080180,-0.00086
 274,0.00087333,-0.00000351,0.00005901,0.00007939,-0.00000808,-0.000025
 98,0.00001297,-0.00011837,0.00001324,0.00012542,-0.00002794,-0.0000526
 5,-0.00004840,-0.00004808,0.00003934,-0.00002700,-0.00001804,-0.000019
 70,0.00002249,0.00001002,0.00001273,0.00002934,0.00000947,0.00002381,0
 .00002191,0.00004164,0.00000387,-0.00008341,0.00000241,0.00002560,-0.0
 0000828,0.00479815,-0.00227610,0.00557973,0.00000338,0.00000402,-0.000
 00340,0.15690408,-0.04676070,0.36579859,0.00016300,0.00108846,-0.00007
 252,0.00018580,0.00068270,-0.00028906,-0.00045078,-0.00036892,-0.00071
 546,-0.00025270,-0.00035707,-0.00057882,0.00075459,0.00034183,0.000243
 65,0.00000986,-0.00000449,0.00001076,0.01089896,0.00472370,-0.00173442
 ,0.00013495,0.00007501,-0.00003744,0.00017271,-0.00004312,-0.00001565,
 0.00003566,0.00001379,0.00002383,-0.00000906,-0.00021812,0.00020254,-0
 .00005149,-0.00004709,0.00003996,-0.00280314,-0.00117746,0.00060262,-0
 .00017460,0.00004591,0.00013221,0.00001462,-0.00006528,0.00001203,0.00
 000429,-0.00001209,0.00000079,-0.00006719,0.00001184,-0.00001796,0.000
 00610,0.00000170,0.00001750,0.00178917,-0.00173957,0.00003645,0.000001
 79,-0.00000630,0.00001641,0.00045453,-0.00024396,-0.00027594,0.0000051
 6,-0.00001584,0.00001366,-0.15590211,0.29558748,-0.21044303,0.00260705
 ,0.00143028,-0.00095028,0.00017774,-0.00007588,0.00095475,-0.00011395,
 -0.00015586,-0.00005814,-0.00212846,0.00002311,-0.00106428,-0.00015485
 ,0.00003738,-0.00002140,-0.00093588,0.00025644,0.00025546,0.00002062,0
 .00006855,0.00000205,0.14537091,-0.00020135,-0.00018525,-0.00107776,0.
 00057241,-0.00104592,0.00087467,0.00117020,0.00018719,0.00142031,0.000
 39192,0.00130732,0.00102939,-0.00150196,-0.00020724,-0.00094487,-0.000
 02513,0.00002011,-0.00001748,0.00665963,0.00021727,0.00834506,-0.00002
 940,-0.00002720,0.00000417,-0.00033518,0.00006942,0.00003901,-0.000065
 26,-0.00002623,-0.00005115,0.00004946,0.00001733,0.00006028,0.00004932
 ,0.00000777,-0.00000825,0.00084289,0.00058823,0.00005891,0.00007024,0.
 00004239,-0.00000446,-0.00006888,0.00002493,-0.00004278,-0.00000969,-0
 .00000898,-0.00002032,0.00006253,0.00001712,0.00008879,-0.00001179,0.0
 0001286,0.00000145,-0.00131059,0.00125493,0.00071529,-0.00000878,-0.00
 001196,0.00000727,-0.00075387,0.00283734,0.00070358,-0.00000566,-0.000
 00776,0.00000076,0.29490945,-0.71538256,0.48765050,-0.00128768,-0.0007
 5840,-0.00018245,0.00021974,-0.00161008,-0.00055998,-0.00010818,-0.000
 04509,-0.00004117,-0.00038890,-0.00187871,0.00076432,0.00032681,0.0000
 3659,0.00006567,0.00151662,-0.00011710,-0.00071266,-0.00001797,-0.0000
 3373,0.00000654,-0.30019944,0.71603688,-0.00049509,-0.00003460,0.00105
 731,-0.00020475,0.00084759,-0.00041319,-0.00054563,-0.00016295,-0.0009
 8816,-0.00047359,-0.00063745,-0.00103353,0.00075733,0.00021523,0.00055
 074,0.00000882,-0.00000991,0.00001251,-0.00333712,0.00940570,0.0045796
 4,0.00002896,0.00002775,-0.00000910,0.00024835,-0.00007763,-0.00003458
 ,0.00005070,0.00001386,0.00003869,0.00003208,-0.00003393,-0.00000056,-
 0.00003404,-0.00002410,0.00002393,-0.00085761,-0.00009171,0.00063564,0
 .00018819,0.00004413,0.00001886,0.00005367,-0.00004067,0.00002305,0.00
 000518,0.00000311,0.00001197,-0.00006608,0.00000993,-0.00005161,0.0000
 0784,-0.00000879,0.00000270,0.00090195,-0.00053272,-0.00117936,0.00000
 736,0.00000742,-0.00000048,0.00043999,-0.00047642,-0.00135736,0.000004
 55,0.00000547,-0.00000493,-0.21007544,0.48767776,-0.37199395,0.0009674
 1,-0.00004293,-0.00090579,0.00068669,0.00010743,0.00203854,-0.00009989
 ,-0.00003163,0.00002108,-0.00058633,0.00033262,-0.00108034,-0.00024911
 ,-0.00000520,-0.00005358,-0.00113470,-0.00001080,0.00062451,0.00002084
 ,0.00003053,-0.00000725,0.21333510,-0.49713676,0.36851364,0.00002757,-
 0.00001084,-0.00003294,-0.00000491,0.00001000,-0.00000896,0.00007092,0
 .00037893,0.00026595,-0.00000456,-0.00001023,-0.00000988,-0.00131081,0
 .00208117,0.00036383,-0.00007733,0.00005393,0.00013213,0.00001322,-0.0
 0001611,-0.00001038,-0.00000433,0.00001524,-0.00001662,0.00041764,-0.0
 0006645,-0.00017336,-0.00079367,-0.00049938,-0.00021933,-0.00002686,-0
 .00026361,-0.00020045,-0.00001031,0.00001462,-0.00001336,-0.00010041,-
 0.00019815,-0.00032312,0.00019136,-0.00006811,-0.00002576,0.00032686,-
 0.00017353,0.00028990,0.00001509,-0.00001603,-0.00000778,-0.12178336,0
 .11695816,-0.07244042,0.01142529,-0.02199203,0.01318663,-0.00000856,0.
 00000481,0.00001432,0.00005372,-0.00004343,0.00000747,-0.00001254,-0.0
 0000459,-0.00001187,0.00006125,0.00043888,-0.00001157,-0.00001681,0.00
 003851,-0.00002113,-0.00010391,-0.00003341,0.00003621,0.00001199,0.000
 00257,0.00001301,-0.00061613,-0.00019729,0.00169032,0.00001270,-0.0000
 1012,0.00001813,0.00001643,-0.00003482,-0.00005428,-0.00000800,-0.0000
 0127,0.00000159,0.00000640,0.00011014,0.00005775,0.00004669,-0.0000276
 5,0.00001320,0.12513966,0.00012474,-0.00001304,0.00004004,0.00000285,-
 0.00000315,0.00000486,-0.00026034,-0.00016792,-0.00017245,0.00000404,0
 .00000765,0.00000953,0.00416823,-0.00916266,0.00333507,0.00006735,-0.0
 0005240,0.00021294,-0.00003475,0.00002210,0.00000947,-0.00008432,-0.00
 001020,-0.00007331,-0.00023521,0.00062417,0.00024361,-0.00111755,-0.00
 101946,-0.00081848,0.00019882,-0.00020808,-0.00043502,0.00001223,0.000
 02546,-0.00003610,-0.00023617,0.00117892,0.00014016,-0.00006167,-0.000
 11031,0.00002843,-0.00044966,0.00071426,-0.00161164,-0.00009593,0.0002
 0148,0.00016540,0.12407102,-0.28864997,0.15535634,0.00636233,-0.010293
 06,0.00268894,0.00000321,0.00000889,-0.00000608,0.00003737,0.00000419,
 0.00006809,0.00000421,0.00001507,0.00001956,0.00003550,0.00028863,-0.0
 0004096,0.00002293,-0.00000876,-0.00000240,-0.00000258,0.00004368,0.00
 004313,-0.00000903,-0.00001328,-0.00001852,0.00056220,0.00023338,-0.00
 064683,-0.00000908,-0.00000874,-0.00000792,-0.00006346,0.00005796,0.00
 000003,0.00000271,-0.00000096,-0.00000051,0.00019642,-0.00034619,-0.00
 028285,-0.00001786,0.00000856,-0.00000514,-0.12675713,0.29685618,0.000
 04801,0.00003064,0.00007072,0.00000495,-0.00001066,0.00000912,-0.00009
 207,-0.00030836,-0.00051458,0.00000382,0.00000475,0.00000739,0.0051000
 1,-0.00854095,0.00780102,0.00006250,0.00001991,0.00016090,-0.00003066,
 0.00000949,0.00001739,-0.00014928,-0.00010050,-0.00008544,0.00021029,0
 .00047875,0.00029345,-0.00077279,-0.00032447,-0.00010973,0.00000751,-0
 .00026855,-0.00034492,0.00000600,0.00006471,-0.00006078,-0.00007399,-0
 .00017817,0.00114705,-0.00040405,0.00020036,0.00011745,-0.00039675,0.0
 0015643,-0.00203819,-0.00009560,0.00015924,0.00012587,-0.05809827,0.11
 993298,-0.10693908,-0.01398492,0.02359386,-0.01439551,0.00000668,-0.00
 001071,-0.00001045,-0.00001531,-0.00005666,0.00001161,0.00001881,-0.00
 000090,-0.00000611,0.00006344,-0.00010962,-0.00010566,0.00002047,-0.00
 004745,0.00003093,0.00015635,0.00018808,0.00009742,-0.00001022,0.00000
 528,-0.00000921,0.00121613,0.00125846,-0.00289821,-0.00001096,0.000014
 37,-0.00002191,-0.00008427,0.00004146,0.00001164,0.00000588,0.00000223
 ,-0.00000217,0.00022937,-0.00047531,-0.00026483,-0.00007168,0.00002556
 ,-0.00002102,0.07283755,-0.14957669,0.12684247,0.00006066,-0.00105376,
 -0.00020763,-0.00026043,0.00059574,-0.00054086,-0.00055932,0.00043935,
 -0.00070506,0.00012778,-0.00065797,-0.00049479,0.00095393,-0.00060308,
 0.00029942,0.00012074,-0.00006624,-0.00002276,0.01036265,-0.00468991,-
 0.00316990,0.00003632,-0.00000603,-0.00001610,0.00017895,0.00000692,-0
 .00001608,0.00003168,0.00002351,0.00001066,-0.00013121,-0.00002201,-0.
 00001565,-0.00005089,-0.00000210,-0.00002601,0.00000041,0.00007624,-0.
 00003952,0.00002043,-0.00010769,0.00004739,-0.00371831,0.00068212,0.00
 142331,-0.00025235,0.00015575,-0.00004916,0.00004689,0.00027968,0.0001
 9327,0.00000729,0.00001518,0.00000559,0.00198847,0.00174262,0.00033113
 ,0.00005313,0.00002343,-0.00010183,-0.19206342,-0.27158544,-0.29884531
 ,0.00000819,0.00000697,0.00002721,0.00060768,0.00051186,-0.00024551,-0
 .00017982,-0.00005978,-0.00005638,-0.00219869,0.00013744,-0.00113408,0
 .00000979,0.00002469,0.00001560,0.00016960,-0.00030709,0.00095793,0.00
 329155,-0.00081442,-0.00157628,-0.00107379,-0.00027437,0.00026119,-0.0
 0018007,-0.00005536,0.00015909,0.00021943,-0.00055118,0.00046825,0.000
 00461,0.00001125,0.00002161,0.18241384,0.00024125,-0.00035514,0.000779
 54,-0.00022395,0.00131226,-0.00052920,-0.00096933,0.00026715,-0.001079
 51,-0.00056363,-0.00060751,-0.00092086,0.00116310,-0.00030769,0.000701
 67,0.00005273,-0.00002845,-0.00000078,-0.00629674,0.00439997,-0.008265
 86,0.00001562,0.00000514,-0.00000626,0.00026221,0.00001017,0.00001287,
 0.00004352,0.00002722,0.00002828,-0.00010033,0.00001045,-0.00007510,-0
 .00005893,-0.00000474,-0.00001747,0.00002937,0.00001164,0.00000906,0.0
 0001878,-0.00003250,-0.00000093,-0.00101180,0.00062415,0.00008590,0.00
 017218,0.00000893,-0.00002869,0.00001485,0.00001973,-0.00001897,0.0000
 1495,-0.00000924,-0.00000108,0.00108924,0.00112267,-0.00026748,0.00002
 283,0.00000956,-0.00002165,-0.27087812,-0.48065860,-0.49638412,0.00000
 416,0.00001149,0.00000264,0.00081464,0.00270774,0.00004977,-0.00026523
 ,0.00003598,-0.00009505,0.00048834,-0.00173164,-0.00083982,0.00001776,
 0.00000854,0.00002734,-0.00038845,-0.00156810,-0.00018523,0.00129798,-
 0.00076681,0.00015238,-0.00124823,-0.00017162,0.00054814,-0.00011898,0
 .00002845,0.00003481,0.00034565,-0.00130442,0.00061252,0.00000634,-0.0
 0000932,-0.00000752,0.27605126,0.47689933,-0.00040451,-0.00024089,0.00
 115651,-0.00049452,0.00113393,-0.00099179,-0.00088912,0.00027504,-0.00
 113097,-0.00037424,-0.00086668,-0.00078703,0.00116798,-0.00029619,0.00
 070717,0.00005388,-0.00002353,-0.00000192,-0.00534838,-0.00936319,0.00
 095618,0.00001274,0.00000715,-0.00001098,0.00028335,0.00003691,0.00002
 166,0.00004468,0.00002423,0.00003095,-0.00011371,-0.00000282,-0.000064
 78,-0.00007399,0.00000047,-0.00001163,0.00003245,0.00002907,0.00000209
 ,0.00003858,-0.00003954,0.00000842,-0.00057232,-0.00022597,0.00070852,
 -0.00012446,0.00002024,0.00004929,0.00004815,-0.00000943,-0.00003065,0
 .00001144,-0.00001720,-0.00001094,0.00116333,0.00094277,-0.00112570,0.
 00001278,0.00000736,-0.00001591,-0.29819745,-0.49639847,-0.56915046,0.
 00000338,0.00001635,-0.00000044,0.00068041,0.00124613,-0.00120944,-0.0
 0028772,0.00000111,-0.00011928,-0.00048618,-0.00043399,-0.00129243,0.0
 0001012,0.00000780,0.00003306,0.00062927,-0.00089363,0.00194349,0.0009
 9949,0.00051137,-0.00080815,-0.00142709,-0.00009430,0.00074725,0.00016
 805,0.00001334,-0.00006450,0.00047795,-0.00107805,0.00098814,0.0000085
 4,-0.00000987,-0.00000746,0.30298968,0.50567708,0.56945383,-0.00154184
 ,-0.00026003,-0.00008745,0.00002971,-0.00007872,0.00005460,0.00229619,
 -0.00085207,-0.00055478,0.00002167,0.00002263,0.00003940,0.00489462,0.
 00143434,0.00180005,-0.00000741,0.00003000,0.00002785,0.00011994,-0.00
 003309,-0.00003313,-0.00001923,0.00000141,0.00001831,0.00012742,0.0001
 1303,0.00015563,-0.00011805,0.00005307,0.00007967,-0.00001178,-0.00002
 963,-0.00003454,0.00003331,0.00000952,0.00000018,-0.00001746,-0.000068
 88,-0.00013520,-0.00000623,0.00000819,-0.00002155,-0.00065282,0.000465
 17,0.00032278,-0.00001622,0.00000776,0.00002086,-0.31036709,-0.0956786
 2,-0.13170603,-0.02040449,-0.00702533,-0.01265297,0.00004110,-0.000071
 11,-0.00003882,-0.00000552,0.00000324,0.00000519,0.00010410,-0.0000164
 7,-0.00004730,-0.00001405,-0.00003932,-0.00000525,-0.00001248,-0.00010
 822,0.00013580,0.00002219,-0.00002038,0.00009890,-0.00006496,0.0000737
 8,-0.00000134,0.00007112,-0.00008573,-0.00009036,-0.00005281,0.0001113
 5,-0.00008774,0.00009135,0.00018732,0.00015340,0.00005174,0.00001068,-
 0.00001924,0.00000465,-0.00002958,-0.00002400,-0.00002942,0.00006732,-
 0.00006710,-0.01295890,-0.00645266,-0.00572855,-0.00004574,-0.00004303
 ,-0.00004258,0.33843736,0.00122861,-0.00010975,-0.00004262,-0.00001310
 ,0.00002534,-0.00001878,-0.00096065,0.00106525,0.00103211,-0.00001641,
 -0.00002806,-0.00002746,-0.00887812,-0.00540981,-0.00677375,0.00000647
 ,-0.00000115,-0.00001346,-0.00014376,-0.00005458,0.00001366,-0.0000143
 0,-0.00003365,-0.00000972,0.00036414,-0.00033627,-0.00019856,0.0001900
 8,-0.00005426,0.00021197,-0.00001071,-0.00009994,-0.00003800,-0.000014
 73,-0.00015796,0.00002326,-0.00004931,0.00015843,0.00016764,-0.0000331
 2,-0.00007075,0.00003237,0.00184246,-0.00017382,-0.00002970,-0.0000045
 5,0.00008704,0.00007799,-0.12293783,-0.08355211,-0.04357916,-0.0092439
 1,-0.00505939,-0.00736291,-0.00003277,0.00000143,0.00001359,0.00003858
 ,-0.00001224,-0.00006102,-0.00000673,-0.00002651,-0.00005781,-0.000048
 11,0.00013619,-0.00009965,-0.00001487,0.00002742,-0.00002421,0.0000133
 1,0.00004809,-0.00007945,0.00002905,0.00001789,0.00003121,0.00008433,0
 .00007617,-0.00011853,0.00002935,-0.00000684,0.00002003,-0.00002583,-0
 .00036196,-0.00029027,-0.00003090,-0.00000214,0.00001381,-0.00003853,0
 .00018647,0.00013292,0.00001453,-0.00003562,0.00002228,0.03031088,0.00
 978698,0.01382995,0.00007239,0.00003524,0.00004340,0.10829404,0.083934
 88,0.00076656,-0.00002797,-0.00007321,-0.00000057,-0.00000356,-0.00000
 046,-0.00040709,0.00085450,0.00055453,-0.00000795,-0.00001228,-0.00001
 262,-0.00724447,-0.00502187,-0.00543543,-0.00001630,0.00002923,-0.0000
 2997,-0.00010357,-0.00008113,-0.00000266,0.00002015,-0.00001225,0.0000
 0016,0.00033098,-0.00035670,-0.00021267,0.00026129,0.00015153,0.000065
 20,0.00002314,0.00008986,0.00002066,-0.00000086,-0.00000590,0.00001996
 ,0.00005430,0.00018530,0.00017160,-0.00005062,-0.00006510,0.00002649,0
 .00147364,-0.00022226,0.00020735,0.00002756,0.00004219,0.00004001,-0.1
 5666711,-0.03881873,-0.12279483,0.02841896,0.00896155,0.01316781,-0.00
 000719,-0.00003259,-0.00000860,-0.00001649,0.00003880,-0.00004276,0.00
 004227,-0.00004242,-0.00007964,0.00001386,-0.00024159,0.00002481,-0.00
 000458,-0.00004931,0.00004384,0.00011446,0.00002778,-0.00021017,0.0000
 0354,0.00004491,0.00002762,-0.00008509,0.00004728,-0.00031993,0.000003
 25,0.00004107,-0.00001958,0.00000337,-0.00029096,-0.00019418,-0.000012
 72,0.00000410,0.00000705,-0.00006261,0.00018829,0.00013419,-0.00003165
 ,0.00001661,-0.00000616,-0.01535532,-0.00862082,-0.00890915,0.00005155
 ,0.00002359,0.00002791,0.14846531,0.04315887,0.12381282\\0.00000563,0.
 00000397,0.00000042,0.00000117,-0.00000190,0.00000287,-0.00000447,0.00
 000168,-0.00000138,0.00000050,0.00000256,0.00000098,-0.00933389,0.0000
 3888,0.00009772,-0.00000138,-0.00000262,0.00000081,0.00932988,-0.00004
 737,-0.00009385,-0.00000272,-0.00000053,-0.00000070,0.00000286,0.00000
 007,-0.00000173,0.00000039,0.00000204,0.00000257,-0.00000016,0.0000021
 9,-0.00000170,0.00000150,0.00000065,0.00000202,-0.00000204,-0.00000139
 ,0.00000087,0.00000173,-0.00000194,-0.00000185,-0.00000072,0.00000084,
 0.00000245,-0.00000035,-0.00000269,0.00000269,-0.00000110,-0.00000151,
 -0.00000412,-0.00000169,0.00000059,0.00000174,-0.00000268,0.00000528,-
 0.00000223,-0.00000034,-0.00000042,0.00000031,0.00000248,-0.00000091,0
 .00000122,-0.00000156,0.00000032,0.00000134,0.00000234,-0.00000255,0.0
 0000167,0.00000299,-0.00000150,-0.00000106,-0.00000005,-0.00000017,-0.
 00000192,0.00000013,0.00000169,-0.00000111,-0.00000238,0.00000225,-0.0
 0000020,0.00000234,-0.00000111,-0.00000048,0.00000224,-0.00000066,0.00
 000015,0.00000105,-0.00000054,-0.00000211,-0.00000179,0.00000250,-0.00
 000344,-0.00000201,0.00000230,-0.00000198,-0.00000056,-0.00000160,-0.0
 0000018,0.00000268,0.00000160,0.00000020\\\@


 THE WORLD IS NOT A HAMBURGER - YOU CAN'T HAVE IT YOUR WAY.
 Job cpu time:  4 days 12 hours 52 minutes  0.2 seconds.
 File lengths (MBytes):  RWF=   1817 Int=      0 D2E=      0 Chk=     35 Scr=      1
 Normal termination of Gaussian 09 at Sat May  1 03:48:25 2010.
