 Entering Gaussian System, Link 0=g09
 Input=rufe_h2otz_opt_8freq.com
 Output=rufe_h2otz_opt_8freq.log
 Initial command:
 /home/bin/gauss09A/g09/l1.exe /state/partition1/270785.1.khalil.q/Gau-20598.inp -scrdir=/state/partition1/270785.1.khalil.q/
 Entering Link 1 = /home/bin/gauss09A/g09/l1.exe PID=     20599.
  
 Copyright (c) 1988,1990,1992,1993,1995,1998,2003,2009, Gaussian, Inc.
                  All Rights Reserved.
  
 This is part of the Gaussian(R) 09 program.  It is based on
 the Gaussian(R) 03 system (copyright 2003, Gaussian, Inc.),
 the Gaussian(R) 98 system (copyright 1998, Gaussian, Inc.),
 the Gaussian(R) 94 system (copyright 1995, Gaussian, Inc.),
 the Gaussian 92(TM) system (copyright 1992, Gaussian, Inc.),
 the Gaussian 90(TM) system (copyright 1990, Gaussian, Inc.),
 the Gaussian 88(TM) system (copyright 1988, Gaussian, Inc.),
 the Gaussian 86(TM) system (copyright 1986, Carnegie Mellon
 University), and the Gaussian 82(TM) system (copyright 1983,
 Carnegie Mellon University). Gaussian is a federally registered
 trademark of Gaussian, Inc.
  
 This software contains proprietary and confidential information,
 including trade secrets, belonging to Gaussian, Inc.
  
 This software is provided under written license and may be
 used, copied, transmitted, or stored only in accord with that
 written license.
  
 The following legend is applicable only to US Government
 contracts under FAR:
  
                    RESTRICTED RIGHTS LEGEND
  
 Use, reproduction and disclosure by the US Government is
 subject to restrictions as set forth in subparagraphs (a)
 and (c) of the Commercial Computer Software - Restricted
 Rights clause in FAR 52.227-19.
  
 Gaussian, Inc.
 340 Quinnipiac St., Bldg. 40, Wallingford CT 06492
  
  
 ---------------------------------------------------------------
 Warning -- This program may not be used in any manner that
 competes with the business of Gaussian, Inc. or will provide
 assistance to any competitor of Gaussian, Inc.  The licensee
 of this program is prohibited from giving any competitor of
 Gaussian, Inc. access to this program.  By using this program,
 the user acknowledges that Gaussian, Inc. is engaged in the
 business of creating and licensing software in the field of
 computational chemistry and represents and warrants to the
 licensee that it is not a competitor of Gaussian, Inc. and that
 it will not use this program in any manner prohibited above.
 ---------------------------------------------------------------
  

 Cite this work as:
 Gaussian 09, Revision A.02,
 M. J. Frisch, G. W. Trucks, H. B. Schlegel, G. E. Scuseria, 
 M. A. Robb, J. R. Cheeseman, G. Scalmani, V. Barone, B. Mennucci, 
 G. A. Petersson, H. Nakatsuji, M. Caricato, X. Li, H. P. Hratchian, 
 A. F. Izmaylov, J. Bloino, G. Zheng, J. L. Sonnenberg, M. Hada, 
 M. Ehara, K. Toyota, R. Fukuda, J. Hasegawa, M. Ishida, T. Nakajima, 
 Y. Honda, O. Kitao, H. Nakai, T. Vreven, J. A. Montgomery, Jr., 
 J. E. Peralta, F. Ogliaro, M. Bearpark, J. J. Heyd, E. Brothers, 
 K. N. Kudin, V. N. Staroverov, R. Kobayashi, J. Normand, 
 K. Raghavachari, A. Rendell, J. C. Burant, S. S. Iyengar, J. Tomasi, 
 M. Cossi, N. Rega, J. M. Millam, M. Klene, J. E. Knox, J. B. Cross, 
 V. Bakken, C. Adamo, J. Jaramillo, R. Gomperts, R. E. Stratmann, 
 O. Yazyev, A. J. Austin, R. Cammi, C. Pomelli, J. W. Ochterski, 
 R. L. Martin, K. Morokuma, V. G. Zakrzewski, G. A. Voth, 
 P. Salvador, J. J. Dannenberg, S. Dapprich, A. D. Daniels, 
 O. Farkas, J. B. Foresman, J. V. Ortiz, J. Cioslowski, 
 and D. J. Fox, Gaussian, Inc., Wallingford CT, 2009.
 
 ******************************************
 Gaussian 09:  EM64L-G09RevA.02 11-Jun-2009
                12-May-2010 
 ******************************************
 %mem=24GB
 %nprocshared=8
 Will use up to    8 processors via shared memory.
 %chk=rufe_h2otz_opt_8freq.chk
 ----------------------------------------------------------------------
 #p freq upbe1pbe/gen scrf=(solvent=water,pcm) scf=(qc,conver=7) caches
 ize=131072 int(grid=ultrafine) pseudo=read
 ----------------------------------------------------------------------
 1/4=131072,10=4,30=1,38=1/1,3;
 2/4=131072,12=2,17=6,18=5,40=1/2;
 3/4=131072,5=7,11=2,16=1,17=8,25=1,30=1,70=2201,71=2,72=1,74=-13,75=-5,116=2/1,2,3;
 4/4=131072/1;
 5/4=131072,5=2,6=7,8=3,38=5,53=1,98=1/8;
 8/4=131072,6=4,10=90,11=11/1;
 11/4=131072,6=1,8=1,9=11,15=111,16=1/1,2,10;
 10/4=131072,6=1/2;
 6/4=131072,7=2,8=2,9=2,10=2,18=1,28=1/1;
 7/4=131072,8=1,10=1,25=1/1,2,3,16;
 1/4=131072,10=4,30=1/3;
 99/4=131072/99;
 Leave Link    1 at Wed May 12 12:46:26 2010, MaxMem= 3221225472 cpu:       0.5
 (Enter /home/bin/gauss09A/g09/l101.exe)
 -------------------
 Title Card Required
 -------------------
 Symbolic Z-matrix:
 Charge = -1 Multiplicity = 2
 C                     0.59019   0.0334   -0.02831 
 N                     2.64505  -2.30071  -2.07158 
 N                    -0.57213   0.04045  -0.03959 
 N                     2.73244   2.17121  -2.20829 
 Ru                   -2.57088   0.00501  -0.01906 
 H                    -5.14025   0.40004  -0.80802 
 Fe                    2.53016   0.0044    0.01139 
 H                    -5.10845  -0.98409   0.03145 
 N                    -4.72634  -0.04286   0.0077 
 H                    -5.12511   0.43661   0.80989 
 N                    -2.59981   2.14466  -0.0332 
 H                    -1.64813   2.49633  -0.09177 
 N                    -2.47776  -2.13302  -0.00636 
 H                    -2.91759  -2.58096  -0.80557 
 N                    -2.5865   -0.02452  -2.15888 
 H                    -2.90535   0.83672  -2.59414 
 N                    -2.51781   0.01098   2.12114 
 H                    -2.79039   0.89183   2.54837 
 C                     4.47227  -0.02977   0.05915 
 H                    -3.10232   2.55565  -0.81495 
 C                     2.40503  -1.35408   1.40136 
 H                    -3.00548   2.56605   0.79802 
 C                     2.45673   1.44659   1.31828 
 H                    -1.50317  -2.42096  -0.02229 
 C                     2.65917   1.36377  -1.37613 
 H                    -2.88747  -2.57051   0.81413 
 C                     2.60709  -1.4398   -1.29231 
 H                    -1.64483  -0.18026  -2.5075 
 N                     5.63318  -0.05042   0.09525 
 H                    -3.16349  -0.76086  -2.55597 
 N                     2.40695   2.30662   2.09785 
 H                    -3.104    -0.69561   2.55682 
 N                     2.32084  -2.16178   2.23227 
 H                    -1.56924  -0.16966   2.43779 
 
 NAtoms=     34 NQM=     34 NQMF=      0 NMic=      0 NMicF=      0 NTot=     34.
                    Isotopes and Nuclear Properties:
 (Nuclear quadrupole moments (NQMom) in fm**2, nuclear magnetic moments (NMagM)
  in nuclear magnetons)

  Atom         1           2           3           4           5           6           7           8           9          10
 IAtWgt=          12          14          14          14         102           1          56           1          14           1
 AtmWgt=  12.0000000  14.0030740  14.0030740  14.0030740 101.9037000   1.0078250  55.9349393   1.0078250  14.0030740   1.0078250
 NucSpn=           0           2           2           2           0           1           0           1           2           1
 AtZEff=   0.0000000   0.0000000   0.0000000   0.0000000   0.0000000   0.0000000   0.0000000   0.0000000   0.0000000   0.0000000
 NQMom=    0.0000000   2.0440000   2.0440000   2.0440000   0.0000000   0.0000000   0.0000000   0.0000000   2.0440000   0.0000000
 NMagM=    0.0000000   0.4037610   0.4037610   0.4037610   0.0000000   2.7928460   0.0000000   2.7928460   0.4037610   2.7928460

  Atom        11          12          13          14          15          16          17          18          19          20
 IAtWgt=          14           1          14           1          14           1          14           1          12           1
 AtmWgt=  14.0030740   1.0078250  14.0030740   1.0078250  14.0030740   1.0078250  14.0030740   1.0078250  12.0000000   1.0078250
 NucSpn=           2           1           2           1           2           1           2           1           0           1
 AtZEff=   0.0000000   0.0000000   0.0000000   0.0000000   0.0000000   0.0000000   0.0000000   0.0000000   0.0000000   0.0000000
 NQMom=    2.0440000   0.0000000   2.0440000   0.0000000   2.0440000   0.0000000   2.0440000   0.0000000   0.0000000   0.0000000
 NMagM=    0.4037610   2.7928460   0.4037610   2.7928460   0.4037610   2.7928460   0.4037610   2.7928460   0.0000000   2.7928460

  Atom        21          22          23          24          25          26          27          28          29          30
 IAtWgt=          12           1          12           1          12           1          12           1          14           1
 AtmWgt=  12.0000000   1.0078250  12.0000000   1.0078250  12.0000000   1.0078250  12.0000000   1.0078250  14.0030740   1.0078250
 NucSpn=           0           1           0           1           0           1           0           1           2           1
 AtZEff=   0.0000000   0.0000000   0.0000000   0.0000000   0.0000000   0.0000000   0.0000000   0.0000000   0.0000000   0.0000000
 NQMom=    0.0000000   0.0000000   0.0000000   0.0000000   0.0000000   0.0000000   0.0000000   0.0000000   2.0440000   0.0000000
 NMagM=    0.0000000   2.7928460   0.0000000   2.7928460   0.0000000   2.7928460   0.0000000   2.7928460   0.4037610   2.7928460

  Atom        31          32          33          34
 IAtWgt=          14           1          14           1
 AtmWgt=  14.0030740   1.0078250  14.0030740   1.0078250
 NucSpn=           2           1           2           1
 AtZEff=   0.0000000   0.0000000   0.0000000   0.0000000
 NQMom=    2.0440000   0.0000000   2.0440000   0.0000000
 NMagM=    0.4037610   2.7928460   0.4037610   2.7928460
 Leave Link  101 at Wed May 12 12:46:26 2010, MaxMem= 3221225472 cpu:       0.5
 (Enter /home/bin/gauss09A/g09/l103.exe)

 GradGradGradGradGradGradGradGradGradGradGradGradGradGradGradGradGradGrad
 Berny optimization.
 Initialization pass.
 Trust Radius=3.00D-01 FncErr=1.00D-07 GrdErr=1.00D-07
 Number of steps in this run=   2 maximum allowed number of steps=   2.
 GradGradGradGradGradGradGradGradGradGradGradGradGradGradGradGradGradGrad

 Leave Link  103 at Wed May 12 12:46:26 2010, MaxMem= 3221225472 cpu:       0.1
 (Enter /home/bin/gauss09A/g09/l202.exe)
                          Input orientation:                          
 ---------------------------------------------------------------------
 Center     Atomic      Atomic             Coordinates (Angstroms)
 Number     Number       Type             X           Y           Z
 ---------------------------------------------------------------------
      1          6           0        0.590186    0.033404   -0.028310
      2          7           0        2.645048   -2.300711   -2.071582
      3          7           0       -0.572126    0.040445   -0.039591
      4          7           0        2.732443    2.171205   -2.208289
      5         44           0       -2.570876    0.005010   -0.019062
      6          1           0       -5.140249    0.400038   -0.808017
      7         26           0        2.530161    0.004402    0.011388
      8          1           0       -5.108447   -0.984093    0.031449
      9          7           0       -4.726341   -0.042863    0.007696
     10          1           0       -5.125113    0.436608    0.809891
     11          7           0       -2.599814    2.144655   -0.033197
     12          1           0       -1.648132    2.496333   -0.091772
     13          7           0       -2.477763   -2.133019   -0.006358
     14          1           0       -2.917589   -2.580957   -0.805567
     15          7           0       -2.586497   -0.024524   -2.158881
     16          1           0       -2.905354    0.836718   -2.594141
     17          7           0       -2.517810    0.010979    2.121139
     18          1           0       -2.790385    0.891834    2.548373
     19          6           0        4.472272   -0.029767    0.059145
     20          1           0       -3.102318    2.555646   -0.814948
     21          6           0        2.405033   -1.354083    1.401359
     22          1           0       -3.005478    2.566051    0.798021
     23          6           0        2.456729    1.446591    1.318275
     24          1           0       -1.503170   -2.420963   -0.022289
     25          6           0        2.659165    1.363769   -1.376127
     26          1           0       -2.887469   -2.570507    0.814127
     27          6           0        2.607086   -1.439804   -1.292309
     28          1           0       -1.644834   -0.180258   -2.507502
     29          7           0        5.633177   -0.050424    0.095252
     30          1           0       -3.163494   -0.760860   -2.555968
     31          7           0        2.406953    2.306621    2.097852
     32          1           0       -3.103999   -0.695614    2.556820
     33          7           0        2.320842   -2.161779    2.232268
     34          1           0       -1.569242   -0.169655    2.437790
 ---------------------------------------------------------------------
                    Distance matrix (angstroms):
                    1          2          3          4          5
     1  C    0.000000
     2  N    3.720956   0.000000
     3  N    1.162388   4.467685   0.000000
     4  N    3.729848   4.474859   4.490386   0.000000
     5  Ru   3.161203   6.060945   1.999169   6.132724   0.000000
     6  H    5.794847   8.336755   4.646239   8.190059   2.716648
     7  Fe   1.940598   3.108940   3.102915   3.108524   5.101128
     8  H    5.789066   8.140817   4.651122   8.743677   2.723994
     9  N    5.317196   7.984901   4.155319   8.089879   2.156163
    10  H    5.790492   8.727612   4.648468   8.594151   2.719847
    11  N    3.825376   7.171114   2.922201   5.758880   2.139887
    12  H    3.328681   6.735182   2.681771   4.875940   2.657712
    13  N    3.755820   5.525981   2.890762   7.107819   2.140093
    14  H    4.443366   5.711765   3.599953   7.514888   2.725073
    15  N    3.825442   5.705937   2.924603   5.754545   2.140080
    16  H    4.409944   6.397147   3.550173   5.806418   2.726655
    17  N    3.778925   7.041159   2.907801   7.139725   2.140867
    18  H    4.336411   7.815386   3.513274   7.400287   2.725135
    19  C    3.883585   3.610531   5.045853   3.607290   7.043668
    20  H    4.540384   7.628601   3.650929   6.011126   2.724263
    21  C    2.694948   3.607635   3.589501   5.056126   5.350178
    22  H    4.475033   7.990522   3.605757   6.489803   2.723130
    23  C    2.700809   5.056567   3.604859   3.610781   5.398466
    24  H    3.225848   4.628366   2.631667   6.618687   2.650538
    25  C    2.804845   3.729916   3.738818   1.161816   5.571461
    26  H    4.425397   6.245707   3.592592   7.949984   2.725385
    27  C    2.799271   1.161838   3.723953   3.727482   5.524485
    28  H    3.344751   4.805147   2.699999   4.977897   2.661618
    29  N    5.045201   4.322948   6.207433   4.319282   8.205037
    30  H    4.594565   6.028676   3.699923   6.593933   2.715446
    31  N    3.603987   6.218390   4.310351   4.320548   5.878564
    32  H    4.567425   7.553144   3.700475   8.061574   2.722180
    33  N    3.595026   4.318279   4.287237   6.217935   5.804513
    34  H    3.284206   6.529631   2.678768   6.750568   2.658928
                    6          7          8          9         10
     6  H    0.000000
     7  Fe   7.724192   0.000000
     8  H    1.619115   7.702328   0.000000
     9  N    1.016302   7.256657   1.016112   0.000000
    10  H    1.618392   7.708932   1.620074   1.016085   0.000000
    11  N    3.177711   5.558715   4.010796   3.051069   3.163125
    12  H    4.135498   4.866055   4.909412   3.991589   4.140635
    13  N    3.761365   5.445015   2.870881   3.070025   3.778585
    14  H    3.718408   6.085185   2.837328   3.221009   4.072906
    15  N    2.920057   5.557976   3.475421   3.045213   3.933296
    16  H    2.894077   6.084928   3.881069   3.295332   4.083485
    17  N    3.950760   5.471115   3.473956   3.057311   2.949332
    18  H    4.126630   5.960876   3.902233   3.328156   2.946270
    19  C    9.661121   1.942999   9.628171   9.198766   9.637994
    20  H    2.966455   6.238309   4.155802   3.172766   3.349944
    21  C    8.055406   1.947603   7.646302   7.383637   7.762700
    22  H    3.439218   6.150133   4.196860   3.223727   3.004583
    23  C    7.958044   1.947628   8.049598   7.452019   7.665693
    24  H    4.669450   4.706516   3.881431   4.005632   4.687932
    25  C    7.879238   1.946720   8.235868   7.644559   8.138384
    26  H    4.065773   6.051881   2.839373   3.228121   3.748308
    27  C    7.977516   1.947119   7.841521   7.577639   8.229646
    28  H    3.929748   4.879497   4.369100   3.980048   4.847470
    29  N   10.820606   3.104633  10.782314  10.359891  10.792994
    30  H    2.882807   6.292428   3.244596   3.087132   4.075645
    31  N    8.308995   3.109457   8.460500   7.795685   7.866881
    32  H    4.082756   6.221978   3.237056   3.091296   2.901481
    33  N    8.454237   3.109415   7.837403   7.687738   8.013552
    34  H    4.859208   4.766847   4.356576   3.986064   3.957503
                   11         12         13         14         15
    11  N    0.000000
    12  H    1.016271   0.000000
    13  N    4.279499   4.703880   0.000000
    14  H    4.798848   5.282035   1.016283   0.000000
    15  N    3.037112   3.392372   3.015117   2.911431   0.000000
    16  H    2.891797   3.255270   3.962170   3.857415   1.016297
    17  N    3.033226   3.439520   3.020691   3.929830   4.280718
    18  H    2.875827   3.293862   3.971664   4.829635   4.799950
    19  C    7.399394   6.622938   7.261608   7.865516   7.399046
    20  H    1.016149   1.625164   4.798694   5.139932   2.954573
    21  C    6.272767   5.786475   5.141022   5.891184   6.273628
    22  H    1.016396   1.624494   4.796537   5.391745   3.953466
    23  C    5.280378   4.465431   6.238387   7.043802   6.299914
    24  H    4.695489   4.919923   1.016365   1.624716   3.388443
    25  C    5.483621   4.635200   6.363319   6.854676   5.482429
    26  H    4.799318   5.294287   1.016096   1.620008   3.925734
    27  C    6.445581   5.919573   5.290549   5.662259   5.452272
    28  H    3.526952   3.605538   3.280666   3.206220   1.016129
    29  N    8.521562   7.716114   8.374657   8.962738   8.523193
    30  H    3.888975   4.356362   2.975493   2.537149   1.016265
    31  N    5.443833   4.612392   6.928099   7.789031   6.963372
    32  H    3.876792   4.395806   3.004694   3.859393   4.791243
    33  N    6.920301   6.546138   5.295175   6.070034   6.923296
    34  H    3.538910   3.675922   3.264057   4.260491   4.710123
                   16         17         18         19         20
    16  H    0.000000
    17  N    4.802697   0.000000
    18  H    5.144094   1.016234   0.000000
    19  C    7.887971   7.287985   7.732515   0.000000
    20  H    2.481741   3.929069   3.765302   8.051262   0.000000
    21  C    6.997417   5.159056   5.775132   2.798004   7.108369
    22  H    3.808856   2.918365   2.431666   7.949903   1.615907
    23  C    6.665649   5.239428   5.417850   2.797759   6.056703
    24  H    4.380985   3.396781   4.386325   6.436642   5.286986
    25  C    5.720595   6.392338   6.732163   2.699871   5.910176
    26  H    4.819315   2.917019   3.873608   7.822477   5.383074
    27  C    6.104450   6.326212   7.022825   2.700658   6.984897
    28  H    1.621930   4.714125   5.293727   6.635459   3.531879
    29  N    8.995908   8.399201   8.823948   1.161650   9.161274
    30  H    1.618749   4.784138   5.378188   8.104211   3.746212
    31  N    7.238509   5.433581   5.405267   3.725665   6.236865
    32  H    5.377723   1.016223   1.618152   8.005099   4.683963
    33  N    7.719996   5.305260   5.962308   3.727813   7.807067
    34  H    5.302670   1.016208   1.621782   6.494414   4.511972
                   21         22         23         24         25
    21  C    0.000000
    22  H    6.708584   0.000000
    23  C    2.802383   5.599961   0.000000
    24  H    4.294072   5.272584   5.695251   0.000000
    25  C    3.894320   6.185514   2.703265   5.786372   0.000000
    26  H    5.462152   5.137939   6.704602   1.624266   7.144291
    27  C    2.702595   7.205361   3.894744   4.412463   2.805309
    28  H    5.749651   4.507776   5.840037   3.349196   4.710460
    29  N    3.718381   9.053518   3.718422   7.520686   3.606889
    30  H    6.857175   4.726790   7.174225   3.454294   6.309472
    31  N    3.726374   5.572367   1.161839   6.491079   3.608478
    32  H    5.667284   3.706958   6.086438   3.491602   7.274833
    33  N    1.161839   7.264924   3.724806   4.446715   5.056131
    34  H    4.274567   3.497957   4.480403   3.335377   5.897184
                   26         27         28         29         30
    26  H    0.000000
    27  C    5.992136   0.000000
    28  H    4.276757   4.598040   0.000000
    29  N    8.914539   3.607344   7.730500   0.000000
    30  H    3.835173   5.946208   1.626584   9.214939   0.000000
    31  N    7.311992   5.056574   6.618975   4.469294   7.880188
    32  H    2.568869   6.927200   5.295480   9.100211   5.113550
    33  N    5.413380   3.609131   6.489871   4.471713   7.414022
    34  H    3.184037   5.741832   4.945881   7.574730   5.275299
                   31         32         33         34
    31  N    0.000000
    32  H    6.292429   0.000000
    33  N    4.471251   5.628843   0.000000
    34  H    4.696555   1.626739   4.375334   0.000000
 Stoichiometry    C6H15FeN11Ru(1-,2)
 Framework group  C1[X(C6H15FeN11Ru)]
 Deg. of freedom    96
 Full point group                 C1      NOp   1
 Largest Abelian subgroup         C1      NOp   1
 Largest concise Abelian subgroup C1      NOp   1
                         Standard orientation:                         
 ---------------------------------------------------------------------
 Center     Atomic      Atomic             Coordinates (Angstroms)
 Number     Number       Type             X           Y           Z
 ---------------------------------------------------------------------
      1          6           0        0.590186    0.033404   -0.028310
      2          7           0        2.645048   -2.300711   -2.071582
      3          7           0       -0.572126    0.040445   -0.039591
      4          7           0        2.732443    2.171205   -2.208289
      5         44           0       -2.570876    0.005010   -0.019062
      6          1           0       -5.140249    0.400038   -0.808017
      7         26           0        2.530161    0.004402    0.011388
      8          1           0       -5.108447   -0.984093    0.031449
      9          7           0       -4.726341   -0.042863    0.007696
     10          1           0       -5.125113    0.436608    0.809891
     11          7           0       -2.599814    2.144655   -0.033197
     12          1           0       -1.648132    2.496333   -0.091772
     13          7           0       -2.477763   -2.133019   -0.006358
     14          1           0       -2.917589   -2.580957   -0.805567
     15          7           0       -2.586497   -0.024524   -2.158881
     16          1           0       -2.905354    0.836718   -2.594141
     17          7           0       -2.517810    0.010979    2.121139
     18          1           0       -2.790385    0.891834    2.548373
     19          6           0        4.472272   -0.029767    0.059145
     20          1           0       -3.102318    2.555646   -0.814948
     21          6           0        2.405033   -1.354083    1.401359
     22          1           0       -3.005478    2.566051    0.798021
     23          6           0        2.456729    1.446591    1.318275
     24          1           0       -1.503170   -2.420963   -0.022289
     25          6           0        2.659165    1.363769   -1.376127
     26          1           0       -2.887469   -2.570507    0.814127
     27          6           0        2.607086   -1.439804   -1.292309
     28          1           0       -1.644834   -0.180258   -2.507502
     29          7           0        5.633177   -0.050424    0.095252
     30          1           0       -3.163494   -0.760860   -2.555968
     31          7           0        2.406953    2.306621    2.097852
     32          1           0       -3.103999   -0.695614    2.556820
     33          7           0        2.320842   -2.161779    2.232268
     34          1           0       -1.569242   -0.169655    2.437790
 ---------------------------------------------------------------------
 Rotational constants (GHZ):      0.4751305      0.1348818      0.1339137
 Leave Link  202 at Wed May 12 12:46:26 2010, MaxMem= 3221225472 cpu:       0.0
 (Enter /home/bin/gauss09A/g09/l301.exe)
 General basis read from cards:  (5D, 7F)
 Centers:   6  8 10 12 14 16 18 20 22 24 26 28 30 32 34  2  3  4  9 11
 Centers:  13 15 17 29 31 33  1 19 21 23 25 27
 TZVP
 ****
 Centers:   5
 MWB28
 ****
 Centers:   7
 MDF10
 ****
 Ernie: Thresh=  0.10000D-02 Tol=  0.10000D-05 Strict=F.
 ======================================================================================================
                                       Pseudopotential Parameters
 ======================================================================================================
  Center     Atomic      Valence      Angular      Power
  Number     Number     Electrons     Momentum     of R      Exponent        Coefficient   SO-Coeffient
 ======================================================================================================
    1          6
                                   No pseudopotential on this center.
    2          7
                                   No pseudopotential on this center.
    3          7
                                   No pseudopotential on this center.
    4          7
                                   No pseudopotential on this center.
    5         44           16
                                      G and up 
                                                     2        1.0000000        0.00000000    0.00000000
                                      S - G
                                                     2       11.1052690      209.82297100    0.00000000
                                                     2        5.4147450       30.65472600    0.00000000
                                      P - G
                                                     2        9.7712710      146.33618200    0.00000000
                                                     2        5.0739910       24.12787700    0.00000000
                                      D - G
                                                     2        7.6714230       67.51589700    0.00000000
                                                     2        4.1365650        9.87010400    0.00000000
                                      F - G
                                                     2       11.3600000      -28.34061600    0.00000000
                                                     2        5.6800000       -4.94462900    0.00000000
    6          1
                                   No pseudopotential on this center.
    7         26           16
                                      F and up 
                                                     2        1.0000000        0.00000000    0.00000000
                                      S - F
                                                     2       20.9300000      253.74958800    0.00000000
                                                     2        9.4450000       37.92284500    0.00000000
                                      P - F
                                                     2       21.7600000      161.03681200    0.00000000
                                                     2        9.1780000       27.65129800    0.00000000
                                      D - F
                                                     2       25.9000000      -24.43127600    0.00000000
                                                     2        8.8350000       -1.43425100    0.00000000
    8          1
                                   No pseudopotential on this center.
    9          7
                                   No pseudopotential on this center.
   10          1
                                   No pseudopotential on this center.
   11          7
                                   No pseudopotential on this center.
   12          1
                                   No pseudopotential on this center.
   13          7
                                   No pseudopotential on this center.
   14          1
                                   No pseudopotential on this center.
   15          7
                                   No pseudopotential on this center.
   16          1
                                   No pseudopotential on this center.
   17          7
                                   No pseudopotential on this center.
   18          1
                                   No pseudopotential on this center.
   19          6
                                   No pseudopotential on this center.
   20          1
                                   No pseudopotential on this center.
   21          6
                                   No pseudopotential on this center.
   22          1
                                   No pseudopotential on this center.
   23          6
                                   No pseudopotential on this center.
   24          1
                                   No pseudopotential on this center.
   25          6
                                   No pseudopotential on this center.
   26          1
                                   No pseudopotential on this center.
   27          6
                                   No pseudopotential on this center.
   28          1
                                   No pseudopotential on this center.
   29          7
                                   No pseudopotential on this center.
   30          1
                                   No pseudopotential on this center.
   31          7
                                   No pseudopotential on this center.
   32          1
                                   No pseudopotential on this center.
   33          7
                                   No pseudopotential on this center.
   34          1
                                   No pseudopotential on this center.
 ======================================================================================================
 There are   492 symmetry adapted basis functions of A   symmetry.
 Integral buffers will be    131072 words long.
 Raffenetti 2 integral format.
 Two-electron integral symmetry is turned on.
   492 basis functions,   855 primitive gaussians,   518 cartesian basis functions
    81 alpha electrons       80 beta electrons
       nuclear repulsion energy      1731.1370160950 Hartrees.
 IExCor= 1009 DFT=T Ex+Corr=PBE1PBE ExCW=0 ScaHFX=  0.250000
 ScaDFX=  0.750000  0.750000  1.000000  1.000000 ScalE2=  1.000000  1.000000
 IRadAn=      5 IRanWt=     -1 IRanGd=            0 ICorTp=0
 NAtoms=   34 NActive=   34 NUniq=   34 SFac= 7.50D-01 NAtFMM=   80 NAOKFM=F Big=F
 ------------------------------------------------------------------------------
 Polarizable Continuum Model (PCM)
 =================================
 Model                : PCM.
 Atomic radii         : UFF (Universal Force Field).
 Polarization charges : Total charges.
 Charge compensation  : None.
 Solution method      : Matrix inversion.
 Cavity type          : Scaled VdW (van der Waals Surface) (Alpha=1.100).
 Cavity algorithm     : GePol (No added spheres)
                        Default sphere list used, NSphG=   34.
                        Lebedev-Laikov grids with approx.  5.0 points / Ang**2.
                        Smoothing algorithm: Karplus/York (Gamma=1.0000).
                        Polarization charges: spherical gaussians, with
                                              point-specific exponents (IZeta= 3).
                        Self-potential: point-specific (ISelfS= 7).
                        Self-field    : sphere-specific E.n sum rule (ISelfD= 2).
 1st derivatives      : Analytical E(r).r(x)/FMM algorithm (CHGder, D1EAlg=3).
                        Cavity 1st derivative terms included.
 2nd derivatives      : Analytical E(r).r(xy)/FMM algorithm (CHGder, D2EAlg=3).
                        Cavity 2nd derivative terms included.
 Solvent              : Water, Eps=  78.355300 Eps(inf)=   1.777849
 ------------------------------------------------------------------------------
 GePol: Number of generator spheres                  =      34
 GePol: Total number of spheres                      =      34
 GePol: Number of exposed spheres                    =      32 ( 94.12%)
 GePol: Number of points                             =    3080
 GePol: Average weight of points                     =       0.13
 GePol: Minimum weight of points                     =   0.41D-10
 GePol: Maximum weight of points                     =    0.20577
 GePol: Number of points with low weight             =     167
 GePol: Fraction of low-weight points (<1% of avg)   =       5.42%
 GePol: Cavity surface area                          =    413.402 Ang**2
 GePol: Cavity volume                                =    433.302 Ang**3
 Leave Link  301 at Wed May 12 12:46:26 2010, MaxMem= 3221225472 cpu:       0.7
 (Enter /home/bin/gauss09A/g09/l302.exe)
 NPDir=0 NMtPBC=     1 NCelOv=     1 NCel=       1 NClECP=     1 NCelD=      1
         NCelK=      1 NCelE2=     1 NClLst=     1 CellRange=     0.0.
 One-electron integrals computed using PRISM.
   1 Symmetry operations used in ECPInt.
 ECPInt:  NShTT=   29403 NPrTT=   97021 LenC2=   25547 LenP2D=   58012.
 LDataN:  DoStor=T MaxTD1= 7 Len=  274
 NBasis=   492 RedAO= T  NBF=   492
 NBsUse=   492 1.00D-06 NBFU=   492
 Precomputing XC quadrature grid using
 IXCGrd= 2 IRadAn=           5 IRanWt=          -1 IRanGd=           0 AccXCQ= 1.00D-10.
 Defaulting to unpruned grid for atomic number  44.
 NRdTot=    2976 NPtTot=      837278 NUsed=      858565 NTot=      858597
 NSgBfM=   507   507   507   507   507 NAtAll=    34    34.
 Leave Link  302 at Wed May 12 12:46:28 2010, MaxMem= 3221225472 cpu:      13.1
 (Enter /home/bin/gauss09A/g09/l303.exe)
 DipDrv:  MaxL=1.
 Leave Link  303 at Wed May 12 12:46:28 2010, MaxMem= 3221225472 cpu:       0.9
 (Enter /home/bin/gauss09A/g09/l401.exe)
 Harris functional with IExCor= 1009 diagonalized for initial guess.
 ExpMin= 1.00D-02 ExpMax= 1.97D+04 ExpMxC= 6.73D+02 IAcc=3 IRadAn=         5 AccDes= 0.00D+00
 HarFok:  IExCor= 1009 AccDes= 0.00D+00 IRadAn=         5 IDoV= 1
 ScaDFX=  1.000000  1.000000  1.000000  1.000000
 Defaulting to unpruned grid for atomic number  44.
 Defaulting to unpruned grid for atomic number  44.
 Defaulting to unpruned grid for atomic number  44.
 Defaulting to unpruned grid for atomic number  44.
 Defaulting to unpruned grid for atomic number  44.
 Defaulting to unpruned grid for atomic number  44.
 Defaulting to unpruned grid for atomic number  44.
 Defaulting to unpruned grid for atomic number  44.
 FoFCou: FMM=F IPFlag=           0 FMFlag=      100000 FMFlg1=           0
         NFxFlg=           0 DoJE=T BraDBF=F KetDBF=T FulRan=T
         Omega=  0.000000  0.000000  1.000000  0.000000  0.000000 ICntrl=     500 IOpCl=  0
         NMat0=    1 NMatS0=    1 NMatT0=    0 NMatD0=    1 NMtDS0=    0 NMtDT0=    0
         I1Cent=           4 NGrid=           0.
 Petite list used in FoFCou.
 Harris En= -1063.49663313908    
 Initial guess orbital symmetries:
 Alpha Orbitals:
       Occupied  (A) (A) (A) (A) (A) (A) (A) (A) (A) (A) (A) (A)
                 (A) (A) (A) (A) (A) (A) (A) (A) (A) (A) (A) (A)
                 (A) (A) (A) (A) (A) (A) (A) (A) (A) (A) (A) (A)
                 (A) (A) (A) (A) (A) (A) (A) (A) (A) (A) (A) (A)
                 (A) (A) (A) (A) (A) (A) (A) (A) (A) (A) (A) (A)
                 (A) (A) (A) (A) (A) (A) (A) (A) (A) (A) (A) (A)
                 (A) (A) (A) (A) (A) (A) (A) (A) (A)
       Virtual   (A) (A) (A) (A) (A) (A) (A) (A) (A) (A) (A) (A)
                 (A) (A) (A) (A) (A) (A) (A) (A) (A) (A) (A) (A)
                 (A) (A) (A) (A) (A) (A) (A) (A) (A) (A) (A) (A)
                 (A) (A) (A) (A) (A) (A) (A) (A) (A) (A) (A) (A)
                 (A) (A) (A) (A) (A) (A) (A) (A) (A) (A) (A) (A)
                 (A) (A) (A) (A) (A) (A) (A) (A) (A) (A) (A) (A)
                 (A) (A) (A) (A) (A) (A) (A) (A) (A) (A) (A) (A)
                 (A) (A) (A) (A) (A) (A) (A) (A) (A) (A) (A) (A)
                 (A) (A) (A) (A) (A) (A) (A) (A) (A) (A) (A) (A)
                 (A) (A) (A) (A) (A) (A) (A) (A) (A) (A) (A) (A)
                 (A) (A) (A) (A) (A) (A) (A) (A) (A) (A) (A) (A)
                 (A) (A) (A) (A) (A) (A) (A) (A) (A) (A) (A) (A)
                 (A) (A) (A) (A) (A) (A) (A) (A) (A) (A) (A) (A)
                 (A) (A) (A) (A) (A) (A) (A) (A) (A) (A) (A) (A)
                 (A) (A) (A) (A) (A) (A) (A) (A) (A) (A) (A) (A)
                 (A) (A) (A) (A) (A) (A) (A) (A) (A) (A) (A) (A)
                 (A) (A) (A) (A) (A) (A) (A) (A) (A) (A) (A) (A)
                 (A) (A) (A) (A) (A) (A) (A) (A) (A) (A) (A) (A)
                 (A) (A) (A) (A) (A) (A) (A) (A) (A) (A) (A) (A)
                 (A) (A) (A) (A) (A) (A) (A) (A) (A) (A) (A) (A)
                 (A) (A) (A) (A) (A) (A) (A) (A) (A) (A) (A) (A)
                 (A) (A) (A) (A) (A) (A) (A) (A) (A) (A) (A) (A)
                 (A) (A) (A) (A) (A) (A) (A) (A) (A) (A) (A) (A)
                 (A) (A) (A) (A) (A) (A) (A) (A) (A) (A) (A) (A)
                 (A) (A) (A) (A) (A) (A) (A) (A) (A) (A) (A) (A)
                 (A) (A) (A) (A) (A) (A) (A) (A) (A) (A) (A) (A)
                 (A) (A) (A) (A) (A) (A) (A) (A) (A) (A) (A) (A)
                 (A) (A) (A) (A) (A) (A) (A) (A) (A) (A) (A) (A)
                 (A) (A) (A) (A) (A) (A) (A) (A) (A) (A) (A) (A)
                 (A) (A) (A) (A) (A) (A) (A) (A) (A) (A) (A) (A)
                 (A) (A) (A) (A) (A) (A) (A) (A) (A) (A) (A) (A)
                 (A) (A) (A) (A) (A) (A) (A) (A) (A) (A) (A) (A)
                 (A) (A) (A) (A) (A) (A) (A) (A) (A) (A) (A) (A)
                 (A) (A) (A) (A) (A) (A) (A) (A) (A) (A) (A) (A)
                 (A) (A) (A)
 Beta  Orbitals:
       Occupied  (A) (A) (A) (A) (A) (A) (A) (A) (A) (A) (A) (A)
                 (A) (A) (A) (A) (A) (A) (A) (A) (A) (A) (A) (A)
                 (A) (A) (A) (A) (A) (A) (A) (A) (A) (A) (A) (A)
                 (A) (A) (A) (A) (A) (A) (A) (A) (A) (A) (A) (A)
                 (A) (A) (A) (A) (A) (A) (A) (A) (A) (A) (A) (A)
                 (A) (A) (A) (A) (A) (A) (A) (A) (A) (A) (A) (A)
                 (A) (A) (A) (A) (A) (A) (A) (A)
       Virtual   (A) (A) (A) (A) (A) (A) (A) (A) (A) (A) (A) (A)
                 (A) (A) (A) (A) (A) (A) (A) (A) (A) (A) (A) (A)
                 (A) (A) (A) (A) (A) (A) (A) (A) (A) (A) (A) (A)
                 (A) (A) (A) (A) (A) (A) (A) (A) (A) (A) (A) (A)
                 (A) (A) (A) (A) (A) (A) (A) (A) (A) (A) (A) (A)
                 (A) (A) (A) (A) (A) (A) (A) (A) (A) (A) (A) (A)
                 (A) (A) (A) (A) (A) (A) (A) (A) (A) (A) (A) (A)
                 (A) (A) (A) (A) (A) (A) (A) (A) (A) (A) (A) (A)
                 (A) (A) (A) (A) (A) (A) (A) (A) (A) (A) (A) (A)
                 (A) (A) (A) (A) (A) (A) (A) (A) (A) (A) (A) (A)
                 (A) (A) (A) (A) (A) (A) (A) (A) (A) (A) (A) (A)
                 (A) (A) (A) (A) (A) (A) (A) (A) (A) (A) (A) (A)
                 (A) (A) (A) (A) (A) (A) (A) (A) (A) (A) (A) (A)
                 (A) (A) (A) (A) (A) (A) (A) (A) (A) (A) (A) (A)
                 (A) (A) (A) (A) (A) (A) (A) (A) (A) (A) (A) (A)
                 (A) (A) (A) (A) (A) (A) (A) (A) (A) (A) (A) (A)
                 (A) (A) (A) (A) (A) (A) (A) (A) (A) (A) (A) (A)
                 (A) (A) (A) (A) (A) (A) (A) (A) (A) (A) (A) (A)
                 (A) (A) (A) (A) (A) (A) (A) (A) (A) (A) (A) (A)
                 (A) (A) (A) (A) (A) (A) (A) (A) (A) (A) (A) (A)
                 (A) (A) (A) (A) (A) (A) (A) (A) (A) (A) (A) (A)
                 (A) (A) (A) (A) (A) (A) (A) (A) (A) (A) (A) (A)
                 (A) (A) (A) (A) (A) (A) (A) (A) (A) (A) (A) (A)
                 (A) (A) (A) (A) (A) (A) (A) (A) (A) (A) (A) (A)
                 (A) (A) (A) (A) (A) (A) (A) (A) (A) (A) (A) (A)
                 (A) (A) (A) (A) (A) (A) (A) (A) (A) (A) (A) (A)
                 (A) (A) (A) (A) (A) (A) (A) (A) (A) (A) (A) (A)
                 (A) (A) (A) (A) (A) (A) (A) (A) (A) (A) (A) (A)
                 (A) (A) (A) (A) (A) (A) (A) (A) (A) (A) (A) (A)
                 (A) (A) (A) (A) (A) (A) (A) (A) (A) (A) (A) (A)
                 (A) (A) (A) (A) (A) (A) (A) (A) (A) (A) (A) (A)
                 (A) (A) (A) (A) (A) (A) (A) (A) (A) (A) (A) (A)
                 (A) (A) (A) (A) (A) (A) (A) (A) (A) (A) (A) (A)
                 (A) (A) (A) (A) (A) (A) (A) (A) (A) (A) (A) (A)
                 (A) (A) (A) (A)
 The electronic state of the initial guess is 2-A.
 Initial guess <Sx>= 0.0000 <Sy>= 0.0000 <Sz>= 0.5000 <S**2>= 0.7500 S= 0.5000
 Leave Link  401 at Wed May 12 12:46:36 2010, MaxMem= 3221225472 cpu:      64.9
 (Enter /home/bin/gauss09A/g09/l508.exe)
 Direct SCF.
 Tight linear equation convergence will be used.
 UPBE1PBE wavefunction.
 Quadratic Convergence SCF Method.
 Line search only if initial step raises energy.
 Integral symmetry usage will be decided dynamically.
 ReadGW:  IGet=1 IStart=           2 Next=      858248 LGW=      858246.
 Pruned (  99, 590) grid will be used in CalDFT.
 Defaulting to unpruned grid for atomic number  44.
 Defaulting to unpruned grid for atomic number  44.
 Defaulting to unpruned grid for atomic number  44.
 Defaulting to unpruned grid for atomic number  44.
 Defaulting to unpruned grid for atomic number  44.
 Defaulting to unpruned grid for atomic number  44.
 Defaulting to unpruned grid for atomic number  44.
 Defaulting to unpruned grid for atomic number  44.
 Iteration   1 EE= -1047.15331274938                                    Grad=4.169D+00
 Gradient too large for Newton-Raphson -- use scaled steepest descent instead.
     ILin= 1 X=0.000D+00 Y=-1.047153312749D+03 DE= 0.00D+00
     ILin= 2 X=3.000D-01 Y=-1.052751829470D+03 DE=-5.60D+00
     ILin= 3 X=4.243D-01 Y=-1.051662590830D+03 DE=-4.51D+00
     An  expanding polynomial of degree  3 produced  0.2943
 Iteration   2 EE= -1052.75102959756     Delta-E=       -5.597716848179 Grad=2.148D+00
 Gradient too large for Newton-Raphson -- use scaled steepest descent instead.
     ILin= 1 X=0.000D+00 Y=-1.052751029598D+03 DE= 0.00D+00
     ILin= 2 X=2.096D-01 Y=-1.054377331360D+03 DE=-1.63D+00
     ILin= 3 X=2.964D-01 Y=-1.054113235099D+03 DE=-1.36D+00
     An  expanding polynomial of degree  3 produced  0.2113
 Iteration   3 EE= -1054.37607458947     Delta-E=       -1.625044991918 Grad=1.367D+00
 Gradient too large for Newton-Raphson -- use scaled steepest descent instead.
     ILin= 1 X=0.000D+00 Y=-1.054376074589D+03 DE= 0.00D+00
     ILin= 2 X=2.943D-01 Y=-1.055483932005D+03 DE=-1.11D+00
     ILin= 3 X=4.163D-01 Y=-1.055588853393D+03 DE=-1.21D+00
     ILin= 4 X=5.887D-01 Y=-1.055306681119D+03 DE=-9.31D-01
     An  expanding polynomial of degree  4 produced  0.4091
 Iteration   4 EE= -1055.58948445810     Delta-E=       -1.213409868624 Grad=1.363D+00
 Gradient too large for Newton-Raphson -- use scaled steepest descent instead.
     ILin= 1 X=0.000D+00 Y=-1.055589484458D+03 DE= 0.00D+00
     ILin= 2 X=4.091D-01 Y=-1.052075861628D+03 DE= 3.51D+00
     ILin= 3 X=2.892D-01 Y=-1.053961111351D+03 DE= 1.63D+00
     ILin= 4 X=2.045D-01 Y=-1.055157137903D+03 DE= 4.32D-01
     ILin= 5 X=1.446D-01 Y=-1.055705494899D+03 DE=-1.16D-01
     A contracting polynomial of degree  5 produced  0.0796
 Iteration   5 EE= -1055.91359876518     Delta-E=       -0.324114307084 Grad=8.158D-01
 Gradient too large for Newton-Raphson -- use scaled steepest descent instead.
     ILin= 1 X=0.000D+00 Y=-1.055913598765D+03 DE= 0.00D+00
     ILin= 2 X=4.091D-01 Y=-1.056273161359D+03 DE=-3.60D-01
     ILin= 3 X=5.785D-01 Y=-1.056190337764D+03 DE=-2.77D-01
     An  expanding polynomial of degree  3 produced  0.3904
 Iteration   6 EE= -1056.27330895468     Delta-E=       -0.359710189500 Grad=9.363D-01
 Gradient too large for Newton-Raphson -- use scaled steepest descent instead.
     ILin= 1 X=0.000D+00 Y=-1.056273308955D+03 DE= 0.00D+00
     ILin= 2 X=3.904D-01 Y=-1.054774779281D+03 DE= 1.50D+00
     ILin= 3 X=2.761D-01 Y=-1.055761605412D+03 DE= 5.12D-01
     ILin= 4 X=1.952D-01 Y=-1.056222103508D+03 DE= 5.12D-02
     ILin= 5 X=1.380D-01 Y=-1.056398104227D+03 DE=-1.25D-01
     A contracting polynomial of degree  5 produced  0.0914
 Iteration   7 EE= -1056.44287775484     Delta-E=       -0.169568800163 Grad=5.746D-01
 Gradient too large for Newton-Raphson -- use scaled steepest descent instead.
     ILin= 1 X=0.000D+00 Y=-1.056442877755D+03 DE= 0.00D+00
     ILin= 2 X=3.904D-01 Y=-1.056592652599D+03 DE=-1.50D-01
     ILin= 3 X=5.521D-01 Y=-1.056539625136D+03 DE=-9.67D-02
     An  expanding polynomial of degree  3 produced  0.3440
 Iteration   8 EE= -1056.59504175739     Delta-E=       -0.152164002547 Grad=6.857D-01
 Gradient too large for Newton-Raphson -- use scaled steepest descent instead.
     ILin= 1 X=0.000D+00 Y=-1.056595041757D+03 DE= 0.00D+00
     ILin= 2 X=3.440D-01 Y=-1.056235956893D+03 DE= 3.59D-01
     ILin= 3 X=2.433D-01 Y=-1.056553136217D+03 DE= 4.19D-02
     ILin= 4 X=1.720D-01 Y=-1.056674827815D+03 DE=-7.98D-02
     A contracting polynomial of degree  4 produced  0.1108
 Iteration   9 EE= -1056.70747835808     Delta-E=       -0.112436600684 Grad=4.686D-01
 Gradient too large for Newton-Raphson -- use scaled steepest descent instead.
     ILin= 1 X=0.000D+00 Y=-1.056707478358D+03 DE= 0.00D+00
     ILin= 2 X=3.440D-01 Y=-1.056814610661D+03 DE=-1.07D-01
     ILin= 3 X=4.866D-01 Y=-1.056795648680D+03 DE=-8.82D-02
     An  expanding polynomial of degree  3 produced  0.3425
 Iteration  10 EE= -1056.81460742870     Delta-E=       -0.107129070627 Grad=6.019D-01
 Gradient too large for Newton-Raphson -- use scaled steepest descent instead.
     ILin= 1 X=0.000D+00 Y=-1.056814607429D+03 DE= 0.00D+00
     ILin= 2 X=3.425D-01 Y=-1.056695688895D+03 DE= 1.19D-01
     ILin= 3 X=2.422D-01 Y=-1.056859500195D+03 DE=-4.49D-02
     A contracting polynomial of degree  3 produced  0.1385
 Iteration  11 EE= -1056.92017994652     Delta-E=       -0.105572517819 Grad=4.574D-01
 Gradient too large for Newton-Raphson -- use scaled steepest descent instead.
     ILin= 1 X=0.000D+00 Y=-1.056920179947D+03 DE= 0.00D+00
     ILin= 2 X=3.425D-01 Y=-1.057004556019D+03 DE=-8.44D-02
     ILin= 3 X=4.843D-01 Y=-1.056928550561D+03 DE=-8.37D-03
     An  expanding polynomial of degree  3 produced  0.2475
 Iteration  12 EE= -1057.01829999726     Delta-E=       -0.098120050735 Grad=5.203D-01
 Gradient too large for Newton-Raphson -- use scaled steepest descent instead.
     ILin= 1 X=0.000D+00 Y=-1.057018299997D+03 DE= 0.00D+00
     ILin= 2 X=2.475D-01 Y=-1.057206048314D+03 DE=-1.88D-01
     ILin= 3 X=3.500D-01 Y=-1.057196957312D+03 DE=-1.79D-01
     An  expanding polynomial of degree  3 produced  0.2805
 Iteration  13 EE= -1057.20841887693     Delta-E=       -0.190118879675 Grad=6.058D-01
 Gradient too large for Newton-Raphson -- use scaled steepest descent instead.
     ILin= 1 X=0.000D+00 Y=-1.057208418877D+03 DE= 0.00D+00
     ILin= 2 X=2.805D-01 Y=-1.057093859039D+03 DE= 1.15D-01
     ILin= 3 X=1.983D-01 Y=-1.057269525351D+03 DE=-6.11D-02
     A contracting polynomial of degree  3 produced  0.1168
 Iteration  14 EE= -1057.32468624586     Delta-E=       -0.116267368923 Grad=3.681D-01
 Gradient too large for Newton-Raphson -- use scaled steepest descent instead.
     ILin= 1 X=0.000D+00 Y=-1.057324686246D+03 DE= 0.00D+00
     ILin= 2 X=2.805D-01 Y=-1.057541189307D+03 DE=-2.17D-01
     ILin= 3 X=3.966D-01 Y=-1.057598603036D+03 DE=-2.74D-01
     ILin= 4 X=5.609D-01 Y=-1.057642332766D+03 DE=-3.18D-01
     ILin= 5 X=7.932D-01 Y=-1.057623313468D+03 DE=-2.99D-01
     An  expanding polynomial of degree  5 produced  0.6320
 Iteration  15 EE= -1057.64680299650     Delta-E=       -0.322116750641 Grad=5.943D-01
 Gradient too large for Newton-Raphson -- use scaled steepest descent instead.
     ILin= 1 X=0.000D+00 Y=-1.057646802996D+03 DE= 0.00D+00
     ILin= 2 X=6.320D-01 Y=-1.054460092337D+03 DE= 3.19D+00
     ILin= 3 X=4.469D-01 Y=-1.056234599622D+03 DE= 1.41D+00
     ILin= 4 X=3.160D-01 Y=-1.057132355066D+03 DE= 5.14D-01
     ILin= 5 X=2.234D-01 Y=-1.057526321087D+03 DE= 1.20D-01
     ILin= 6 X=1.580D-01 Y=-1.057678269649D+03 DE=-3.15D-02
     A contracting polynomial of degree  6 produced  0.0906
 Iteration  16 EE= -1057.72932381341     Delta-E=       -0.082520816919 Grad=2.141D-01
 Gradient too large for Newton-Raphson -- use scaled steepest descent instead.
     ILin= 1 X=0.000D+00 Y=-1.057729323813D+03 DE= 0.00D+00
     ILin= 2 X=6.320D-01 Y=-1.057846880490D+03 DE=-1.18D-01
     ILin= 3 X=8.938D-01 Y=-1.057864376886D+03 DE=-1.35D-01
     ILin= 4 X=1.264D+00 Y=-1.057848278052D+03 DE=-1.19D-01
     An  expanding polynomial of degree  4 produced  0.9634
 Iteration  17 EE= -1057.86519727191     Delta-E=       -0.135873458495 Grad=2.382D-01
 Gradient too large for Newton-Raphson -- use scaled steepest descent instead.
     ILin= 1 X=0.000D+00 Y=-1.057865197272D+03 DE= 0.00D+00
     ILin= 2 X=9.634D-01 Y=-1.057495484606D+03 DE= 3.70D-01
     ILin= 3 X=6.813D-01 Y=-1.057729803044D+03 DE= 1.35D-01
     ILin= 4 X=4.817D-01 Y=-1.057831047692D+03 DE= 3.41D-02
     ILin= 5 X=3.406D-01 Y=-1.057870999898D+03 DE=-5.80D-03
     A contracting polynomial of degree  5 produced  0.1863
 Iteration  18 EE= -1057.88571959675     Delta-E=       -0.020522324844 Grad=1.577D-01
 Gradient too large for Newton-Raphson -- use scaled steepest descent instead.
     ILin= 1 X=0.000D+00 Y=-1.057885719597D+03 DE= 0.00D+00
     ILin= 2 X=9.634D-01 Y=-1.057805742780D+03 DE= 8.00D-02
     ILin= 3 X=6.813D-01 Y=-1.057860730277D+03 DE= 2.50D-02
     ILin= 4 X=4.817D-01 Y=-1.057884441236D+03 DE= 1.28D-03
     ILin= 5 X=3.406D-01 Y=-1.057893205430D+03 DE=-7.49D-03
     A contracting polynomial of degree  5 produced  0.2316
 Iteration  19 EE= -1057.89528571580     Delta-E=       -0.009566119043 Grad=1.135D-01
 Gradient too large for Newton-Raphson -- use scaled steepest descent instead.
     ILin= 1 X=0.000D+00 Y=-1.057895285716D+03 DE= 0.00D+00
     ILin= 2 X=2.316D-01 Y=-1.057901299479D+03 DE=-6.01D-03
     ILin= 3 X=3.275D-01 Y=-1.057899850781D+03 DE=-4.57D-03
     An  expanding polynomial of degree  3 produced  0.2193
 Iteration  20 EE= -1057.90131637724     Delta-E=       -0.006030661440 Grad=1.003D-01
 Gradient too large for Newton-Raphson -- use scaled steepest descent instead.
     ILin= 1 X=0.000D+00 Y=-1.057901316377D+03 DE= 0.00D+00
     ILin= 2 X=2.316D-01 Y=-1.057907169222D+03 DE=-5.85D-03
     ILin= 3 X=3.275D-01 Y=-1.057907223722D+03 DE=-5.91D-03
     ILin= 4 X=4.631D-01 Y=-1.057904994062D+03 DE=-3.68D-03
     An  expanding polynomial of degree  4 produced  0.2833
 Iteration  21 EE= -1057.90736832511     Delta-E=       -0.006051947870 Grad=1.092D-01
 Gradient too large for Newton-Raphson -- use scaled steepest descent instead.
     ILin= 1 X=0.000D+00 Y=-1.057907368325D+03 DE= 0.00D+00
     ILin= 2 X=2.833D-01 Y=-1.057912281597D+03 DE=-4.91D-03
     ILin= 3 X=4.006D-01 Y=-1.057908257857D+03 DE=-8.90D-04
     An  expanding polynomial of degree  3 produced  0.2089
 Iteration  22 EE= -1057.91297531899     Delta-E=       -0.005606993880 Grad=8.886D-02
 Gradient too large for Newton-Raphson -- use scaled steepest descent instead.
     ILin= 1 X=0.000D+00 Y=-1.057912975319D+03 DE= 0.00D+00
     ILin= 2 X=2.833D-01 Y=-1.057919607252D+03 DE=-6.63D-03
     ILin= 3 X=4.006D-01 Y=-1.057919568003D+03 DE=-6.59D-03
     An  expanding polynomial of degree  3 produced  0.3391
 Iteration  23 EE= -1057.91978921221     Delta-E=       -0.006813893227 Grad=1.248D-01
 Gradient too large for Newton-Raphson -- use scaled steepest descent instead.
     ILin= 1 X=0.000D+00 Y=-1.057919789212D+03 DE= 0.00D+00
     ILin= 2 X=3.391D-01 Y=-1.057922685216D+03 DE=-2.90D-03
     ILin= 3 X=4.796D-01 Y=-1.057910721010D+03 DE= 9.07D-03
     An  expanding polynomial of degree  3 produced  0.1914
 Iteration  24 EE= -1057.92684858629     Delta-E=       -0.007059374079 Grad=8.711D-02
 Gradient too large for Newton-Raphson -- use scaled steepest descent instead.
     ILin= 1 X=0.000D+00 Y=-1.057926848586D+03 DE= 0.00D+00
     ILin= 2 X=3.391D-01 Y=-1.057935662621D+03 DE=-8.81D-03
     ILin= 3 X=4.796D-01 Y=-1.057935485568D+03 DE=-8.64D-03
     An  expanding polynomial of degree  3 produced  0.3983
 Iteration  25 EE= -1057.93585988227     Delta-E=       -0.009011295982 Grad=1.492D-01
 Gradient too large for Newton-Raphson -- use scaled steepest descent instead.
     ILin= 1 X=0.000D+00 Y=-1.057935859882D+03 DE= 0.00D+00
     ILin= 2 X=3.983D-01 Y=-1.057928921482D+03 DE= 6.94D-03
     ILin= 3 X=2.816D-01 Y=-1.057941306195D+03 DE=-5.45D-03
     A contracting polynomial of degree  3 produced  0.1715
 Iteration  26 EE= -1057.94501577414     Delta-E=       -0.009155891864 Grad=8.559D-02
 Gradient too large for Newton-Raphson -- use scaled steepest descent instead.
     ILin= 1 X=0.000D+00 Y=-1.057945015774D+03 DE= 0.00D+00
     ILin= 2 X=3.983D-01 Y=-1.057955917519D+03 DE=-1.09D-02
     ILin= 3 X=5.632D-01 Y=-1.057955541381D+03 DE=-1.05D-02
     An  expanding polynomial of degree  3 produced  0.4591
 Iteration  27 EE= -1057.95611415040     Delta-E=       -0.011098376266 Grad=1.664D-01
 Gradient too large for Newton-Raphson -- use scaled steepest descent instead.
     ILin= 1 X=0.000D+00 Y=-1.057956114150D+03 DE= 0.00D+00
     ILin= 2 X=4.591D-01 Y=-1.057926156326D+03 DE= 3.00D-02
     ILin= 3 X=3.246D-01 Y=-1.057953455550D+03 DE= 2.66D-03
     ILin= 4 X=2.295D-01 Y=-1.057963312930D+03 DE=-7.20D-03
     A contracting polynomial of degree  4 produced  0.1536
 Iteration  28 EE= -1057.96570432423     Delta-E=       -0.009590173823 Grad=7.812D-02
 Gradient too large for Newton-Raphson -- use scaled steepest descent instead.
     ILin= 1 X=0.000D+00 Y=-1.057965704324D+03 DE= 0.00D+00
     ILin= 2 X=4.591D-01 Y=-1.057975843876D+03 DE=-1.01D-02
     ILin= 3 X=6.493D-01 Y=-1.057975841895D+03 DE=-1.01D-02
     An  expanding polynomial of degree  3 produced  0.5540
 Iteration  29 EE= -1057.97615038112     Delta-E=       -0.010446056893 Grad=1.638D-01
 Gradient too large for Newton-Raphson -- use scaled steepest descent instead.
     ILin= 1 X=0.000D+00 Y=-1.057976150381D+03 DE= 0.00D+00
     ILin= 2 X=5.540D-01 Y=-1.057913966403D+03 DE= 6.22D-02
     ILin= 3 X=3.917D-01 Y=-1.057958631059D+03 DE= 1.75D-02
     ILin= 4 X=2.770D-01 Y=-1.057976694985D+03 DE=-5.45D-04
     A contracting polynomial of degree  4 produced  0.1418
 Iteration  30 EE= -1057.98405255822     Delta-E=       -0.007902177098 Grad=6.867D-02
 Gradient too large for Newton-Raphson -- use scaled steepest descent instead.
     ILin= 1 X=0.000D+00 Y=-1.057984052558D+03 DE= 0.00D+00
     ILin= 2 X=5.540D-01 Y=-1.057992578419D+03 DE=-8.53D-03
     ILin= 3 X=7.835D-01 Y=-1.057993578851D+03 DE=-9.53D-03
     ILin= 4 X=1.108D+00 Y=-1.057992555064D+03 DE=-8.50D-03
     An  expanding polynomial of degree  4 produced  0.8282
 Iteration  31 EE= -1057.99360581027     Delta-E=       -0.009553252052 Grad=1.658D-01
 Gradient too large for Newton-Raphson -- use scaled steepest descent instead.
     ILin= 1 X=0.000D+00 Y=-1.057993605810D+03 DE= 0.00D+00
     ILin= 2 X=8.282D-01 Y=-1.057789113383D+03 DE= 2.04D-01
     ILin= 3 X=5.856D-01 Y=-1.057912655031D+03 DE= 8.10D-02
     ILin= 4 X=4.141D-01 Y=-1.057967287497D+03 DE= 2.63D-02
     ILin= 5 X=2.928D-01 Y=-1.057990080991D+03 DE= 3.52D-03
     ILin= 6 X=2.070D-01 Y=-1.057998509181D+03 DE=-4.90D-03
     A contracting polynomial of degree  6 produced  0.1329
 Iteration  32 EE= -1058.00079044837     Delta-E=       -0.007184638099 Grad=6.312D-02
 Gradient too large for Newton-Raphson -- use scaled steepest descent instead.
     ILin= 1 X=0.000D+00 Y=-1.058000790448D+03 DE= 0.00D+00
     ILin= 2 X=8.282D-01 Y=-1.058011209189D+03 DE=-1.04D-02
     ILin= 3 X=1.171D+00 Y=-1.058013995751D+03 DE=-1.32D-02
     ILin= 4 X=1.656D+00 Y=-1.058016515959D+03 DE=-1.57D-02
     ILin= 5 X=2.342D+00 Y=-1.058017320251D+03 DE=-1.65D-02
     ILin= 6 X=3.313D+00 Y=-1.058012921980D+03 DE=-1.21D-02
     An  expanding polynomial of degree  6 produced  2.1712
 Iteration  33 EE= -1058.01742032217     Delta-E=       -0.016629873797 Grad=2.339D-01
 Gradient too large for Newton-Raphson -- use scaled steepest descent instead.
     ILin= 1 X=0.000D+00 Y=-1.058017420322D+03 DE= 0.00D+00
     ILin= 2 X=2.171D+00 Y=-1.053539702595D+03 DE= 4.48D+00
     ILin= 3 X=1.535D+00 Y=-1.055825395621D+03 DE= 2.19D+00
     ILin= 4 X=1.086D+00 Y=-1.057016377010D+03 DE= 1.00D+00
     ILin= 5 X=7.676D-01 Y=-1.057586320670D+03 DE= 4.31D-01
     ILin= 6 X=5.428D-01 Y=-1.057846807220D+03 DE= 1.71D-01
     ILin= 7 X=3.838D-01 Y=-1.057961253639D+03 DE= 5.62D-02
     ILin= 8 X=2.714D-01 Y=-1.058008740567D+03 DE= 8.68D-03
     ILin= 9 X=1.919D-01 Y=-1.058026313670D+03 DE=-8.89D-03
     A contracting polynomial of degree  9 produced  0.1210
 Iteration  34 EE= -1058.03124754851     Delta-E=       -0.013827226343 Grad=7.274D-02
 Gradient too large for Newton-Raphson -- use scaled steepest descent instead.
     ILin= 1 X=0.000D+00 Y=-1.058031247549D+03 DE= 0.00D+00
     ILin= 2 X=2.171D+00 Y=-1.058067674306D+03 DE=-3.64D-02
     ILin= 3 X=3.071D+00 Y=-1.058072923035D+03 DE=-4.17D-02
     ILin= 4 X=4.342D+00 Y=-1.058060297441D+03 DE=-2.90D-02
     An  expanding polynomial of degree  4 produced  3.0907
 Iteration  35 EE= -1058.07292874992     Delta-E=       -0.041681201413 Grad=2.055D-01
 Gradient too large for Newton-Raphson -- use scaled steepest descent instead.
     ILin= 1 X=0.000D+00 Y=-1.058072928750D+03 DE= 0.00D+00
     ILin= 2 X=1.394D+00 Y=-1.057400569483D+03 DE= 6.72D-01
     ILin= 3 X=9.860D-01 Y=-1.057762835476D+03 DE= 3.10D-01
     ILin= 4 X=6.972D-01 Y=-1.057956522280D+03 DE= 1.16D-01
     ILin= 5 X=4.930D-01 Y=-1.058047179651D+03 DE= 2.57D-02
     ILin= 6 X=3.486D-01 Y=-1.058083986409D+03 DE=-1.11D-02
     A contracting polynomial of degree  6 produced  0.2021
 Iteration  36 EE= -1058.09665125588     Delta-E=       -0.023722505954 Grad=1.226D-01
 Gradient too large for Newton-Raphson -- use scaled steepest descent instead.
     ILin= 1 X=0.000D+00 Y=-1.058096651256D+03 DE= 0.00D+00
     ILin= 2 X=3.091D+00 Y=-1.057480545869D+03 DE= 6.16D-01
     ILin= 3 X=2.185D+00 Y=-1.057831677925D+03 DE= 2.65D-01
     ILin= 4 X=1.545D+00 Y=-1.057997115460D+03 DE= 9.95D-02
     ILin= 5 X=1.093D+00 Y=-1.058070204839D+03 DE= 2.64D-02
     ILin= 6 X=7.727D-01 Y=-1.058099830448D+03 DE=-3.18D-03
     A contracting polynomial of degree  6 produced  0.4100
 Iteration  37 EE= -1058.11144357325     Delta-E=       -0.014792317370 Grad=1.630D-01
 Gradient too large for Newton-Raphson -- use scaled steepest descent instead.
     ILin= 1 X=0.000D+00 Y=-1.058111443573D+03 DE= 0.00D+00
     ILin= 2 X=4.100D-01 Y=-1.058108733123D+03 DE= 2.71D-03
     ILin= 3 X=2.899D-01 Y=-1.058120024997D+03 DE=-8.58D-03
     A contracting polynomial of degree  3 produced  0.1940
 Iteration  38 EE= -1058.12276032546     Delta-E=       -0.011316752212 Grad=9.894D-02
 Gradient too large for Newton-Raphson -- use scaled steepest descent instead.
     ILin= 1 X=0.000D+00 Y=-1.058122760325D+03 DE= 0.00D+00
     ILin= 2 X=4.100D-01 Y=-1.058135653475D+03 DE=-1.29D-02
     ILin= 3 X=5.798D-01 Y=-1.058136164103D+03 DE=-1.34D-02
     ILin= 4 X=8.199D-01 Y=-1.058131973739D+03 DE=-9.21D-03
     An  expanding polynomial of degree  4 produced  0.5253
 Iteration  39 EE= -1058.13631176876     Delta-E=       -0.013551443305 Grad=1.642D-01
 Gradient too large for Newton-Raphson -- use scaled steepest descent instead.
     ILin= 1 X=0.000D+00 Y=-1.058136311769D+03 DE= 0.00D+00
     ILin= 2 X=5.253D-01 Y=-1.058108265844D+03 DE= 2.80D-02
     ILin= 3 X=3.714D-01 Y=-1.058134221382D+03 DE= 2.09D-03
     ILin= 4 X=2.626D-01 Y=-1.058143601575D+03 DE=-7.29D-03
     A contracting polynomial of degree  4 produced  0.1773
 Iteration  40 EE= -1058.14583072369     Delta-E=       -0.009518954931 Grad=7.708D-02
 Gradient too large for Newton-Raphson -- use scaled steepest descent instead.
     ILin= 1 X=0.000D+00 Y=-1.058145830724D+03 DE= 0.00D+00
     ILin= 2 X=5.253D-01 Y=-1.058156558848D+03 DE=-1.07D-02
     ILin= 3 X=7.428D-01 Y=-1.058157464233D+03 DE=-1.16D-02
     ILin= 4 X=1.051D+00 Y=-1.058155171799D+03 DE=-9.34D-03
     An  expanding polynomial of degree  4 produced  0.7285
 Iteration  41 EE= -1058.15746879954     Delta-E=       -0.011638075846 Grad=1.513D-01
 Gradient too large for Newton-Raphson -- use scaled steepest descent instead.
     ILin= 1 X=0.000D+00 Y=-1.058157468800D+03 DE= 0.00D+00
     ILin= 2 X=7.285D-01 Y=-1.058079504067D+03 DE= 7.80D-02
     ILin= 3 X=5.151D-01 Y=-1.058138681602D+03 DE= 1.88D-02
     ILin= 4 X=3.642D-01 Y=-1.058161874875D+03 DE=-4.41D-03
     A contracting polynomial of degree  4 produced  0.2026
 Iteration  42 EE= -1058.17011855448     Delta-E=       -0.012649754941 Grad=1.014D-01
 Gradient too large for Newton-Raphson -- use scaled steepest descent instead.
     ILin= 1 X=0.000D+00 Y=-1.058170118554D+03 DE= 0.00D+00
     ILin= 2 X=7.285D-01 Y=-1.058184151946D+03 DE=-1.40D-02
     ILin= 3 X=1.030D+00 Y=-1.058157932494D+03 DE= 1.22D-02
     An  expanding polynomial of degree  3 produced  0.4577
 Iteration  43 EE= -1058.19140905932     Delta-E=       -0.021290504835 Grad=2.188D-01
 Gradient too large for Newton-Raphson -- use scaled steepest descent instead.
     ILin= 1 X=0.000D+00 Y=-1.058191409059D+03 DE= 0.00D+00
     ILin= 2 X=4.577D-01 Y=-1.058164253842D+03 DE= 2.72D-02
     ILin= 3 X=3.236D-01 Y=-1.058201784347D+03 DE=-1.04D-02
     A contracting polynomial of degree  3 produced  0.1853
 Iteration  44 EE= -1058.21433628078     Delta-E=       -0.022927221464 Grad=1.080D-01
 Gradient too large for Newton-Raphson -- use scaled steepest descent instead.
     ILin= 1 X=0.000D+00 Y=-1.058214336281D+03 DE= 0.00D+00
     ILin= 2 X=4.577D-01 Y=-1.058234961872D+03 DE=-2.06D-02
     ILin= 3 X=6.473D-01 Y=-1.058228254519D+03 DE=-1.39D-02
     An  expanding polynomial of degree  3 produced  0.4102
 Iteration  45 EE= -1058.23527996101     Delta-E=       -0.020943680229 Grad=1.991D-01
 Gradient too large for Newton-Raphson -- use scaled steepest descent instead.
     ILin= 1 X=0.000D+00 Y=-1.058235279961D+03 DE= 0.00D+00
     ILin= 2 X=4.102D-01 Y=-1.058217337659D+03 DE= 1.79D-02
     ILin= 3 X=2.900D-01 Y=-1.058240629956D+03 DE=-5.35D-03
     A contracting polynomial of degree  3 produced  0.1628
 Iteration  46 EE= -1058.24877716605     Delta-E=       -0.013497205038 Grad=6.814D-02
 Gradient too large for Newton-Raphson -- use scaled steepest descent instead.
     ILin= 1 X=0.000D+00 Y=-1.058248777166D+03 DE= 0.00D+00
     ILin= 2 X=4.102D-01 Y=-1.058258905044D+03 DE=-1.01D-02
     ILin= 3 X=5.800D-01 Y=-1.058260668355D+03 DE=-1.19D-02
     ILin= 4 X=8.203D-01 Y=-1.058260781591D+03 DE=-1.20D-02
     ILin= 5 X=1.160D+00 Y=-1.058256315785D+03 DE=-7.54D-03
     An  expanding polynomial of degree  5 produced  0.7098
 Iteration  47 EE= -1058.26107238892     Delta-E=       -0.012295222872 Grad=1.533D-01
 Gradient too large for Newton-Raphson -- use scaled steepest descent instead.
     ILin= 1 X=0.000D+00 Y=-1.058261072389D+03 DE= 0.00D+00
     ILin= 2 X=7.098D-01 Y=-1.058177096835D+03 DE= 8.40D-02
     ILin= 3 X=5.019D-01 Y=-1.058232858073D+03 DE= 2.82D-02
     ILin= 4 X=3.549D-01 Y=-1.058256426749D+03 DE= 4.65D-03
     ILin= 5 X=2.509D-01 Y=-1.058265330239D+03 DE=-4.26D-03
     A contracting polynomial of degree  5 produced  0.1557
 Iteration  48 EE= -1058.26794923250     Delta-E=       -0.006876843584 Grad=3.877D-02
 Gradient too large for Newton-Raphson -- use scaled steepest descent instead.
     ILin= 1 X=0.000D+00 Y=-1.058267949233D+03 DE= 0.00D+00
     ILin= 2 X=7.098D-01 Y=-1.058273042619D+03 DE=-5.09D-03
     ILin= 3 X=1.004D+00 Y=-1.058273874741D+03 DE=-5.93D-03
     ILin= 4 X=1.420D+00 Y=-1.058273821217D+03 DE=-5.87D-03
     An  expanding polynomial of degree  4 produced  1.1954
 Iteration  49 EE= -1058.27402667155     Delta-E=       -0.006077439044 Grad=9.670D-02
 Gradient too large for Newton-Raphson -- use scaled steepest descent instead.
     ILin= 1 X=0.000D+00 Y=-1.058274026672D+03 DE= 0.00D+00
     ILin= 2 X=1.195D+00 Y=-1.058109593703D+03 DE= 1.64D-01
     ILin= 3 X=8.453D-01 Y=-1.058203514650D+03 DE= 7.05D-02
     ILin= 4 X=5.977D-01 Y=-1.058246471564D+03 DE= 2.76D-02
     ILin= 5 X=4.226D-01 Y=-1.058265430419D+03 DE= 8.60D-03
     ILin= 6 X=2.989D-01 Y=-1.058273284653D+03 DE= 7.42D-04
     ILin= 7 X=2.113D-01 Y=-1.058276128774D+03 DE=-2.10D-03
     A contracting polynomial of degree  7 produced  0.1415
 Iteration  50 EE= -1058.27681981850     Delta-E=       -0.002793146951 Grad=2.081D-02
 Gradient too large for Newton-Raphson -- use scaled steepest descent instead.
     ILin= 1 X=0.000D+00 Y=-1.058276819818D+03 DE= 0.00D+00
     ILin= 2 X=1.195D+00 Y=-1.058278869693D+03 DE=-2.05D-03
     ILin= 3 X=1.691D+00 Y=-1.058279135610D+03 DE=-2.32D-03
     ILin= 4 X=2.391D+00 Y=-1.058278988614D+03 DE=-2.17D-03
     An  expanding polynomial of degree  4 produced  1.8649
 Iteration  51 EE= -1058.27915473475     Delta-E=       -0.002334916247 Grad=7.026D-02
 Gradient too large for Newton-Raphson -- use scaled steepest descent instead.
     ILin= 1 X=0.000D+00 Y=-1.058279154735D+03 DE= 0.00D+00
     ILin= 2 X=1.865D+00 Y=-1.057996412504D+03 DE= 2.83D-01
     ILin= 3 X=1.319D+00 Y=-1.058148569291D+03 DE= 1.31D-01
     ILin= 4 X=9.324D-01 Y=-1.058221817068D+03 DE= 5.73D-02
     ILin= 5 X=6.593D-01 Y=-1.058255880698D+03 DE= 2.33D-02
     ILin= 6 X=4.662D-01 Y=-1.058271166362D+03 DE= 7.99D-03
     ILin= 7 X=3.297D-01 Y=-1.058277661529D+03 DE= 1.49D-03
     ILin= 8 X=2.331D-01 Y=-1.058280143801D+03 DE=-9.89D-04
     A contracting polynomial of degree  8 produced  0.1408
 Iteration  52 EE= -1058.28091594455     Delta-E=       -0.001761209799 Grad=1.875D-02
 Gradient too large for Newton-Raphson -- use scaled steepest descent instead.
     ILin= 1 X=0.000D+00 Y=-1.058280915945D+03 DE= 0.00D+00
     ILin= 2 X=1.865D+00 Y=-1.058282742372D+03 DE=-1.83D-03
     ILin= 3 X=2.637D+00 Y=-1.058282322183D+03 DE=-1.41D-03
     An  expanding polynomial of degree  3 produced  1.7802
 Iteration  53 EE= -1058.28274756889     Delta-E=       -0.001831624346 Grad=8.119D-02
 Gradient too large for Newton-Raphson -- use scaled steepest descent instead.
     ILin= 1 X=0.000D+00 Y=-1.058282747569D+03 DE= 0.00D+00
     ILin= 2 X=1.780D+00 Y=-1.058048965492D+03 DE= 2.34D-01
     ILin= 3 X=1.259D+00 Y=-1.058174400357D+03 DE= 1.08D-01
     ILin= 4 X=8.901D-01 Y=-1.058235545116D+03 DE= 4.72D-02
     ILin= 5 X=6.294D-01 Y=-1.058264216396D+03 DE= 1.85D-02
     ILin= 6 X=4.451D-01 Y=-1.058277067986D+03 DE= 5.68D-03
     ILin= 7 X=3.147D-01 Y=-1.058282431494D+03 DE= 3.16D-04
     ILin= 8 X=2.225D-01 Y=-1.058284366773D+03 DE=-1.62D-03
     A contracting polynomial of degree  8 produced  0.1521
 Iteration  54 EE= -1058.28481304735     Delta-E=       -0.002065478463 Grad=3.571D-02
 Gradient too large for Newton-Raphson -- use scaled steepest descent instead.
     ILin= 1 X=0.000D+00 Y=-1.058284813047D+03 DE= 0.00D+00
     ILin= 2 X=1.780D+00 Y=-1.058278479447D+03 DE= 6.33D-03
     ILin= 3 X=1.259D+00 Y=-1.058283273649D+03 DE= 1.54D-03
     ILin= 4 X=8.901D-01 Y=-1.058285196499D+03 DE=-3.83D-04
     A contracting polynomial of degree  4 produced  0.4928
 Iteration  55 EE= -1058.28590522056     Delta-E=       -0.001092173205 Grad=3.700D-02
 Gradient too large for Newton-Raphson -- use scaled steepest descent instead.
     ILin= 1 X=0.000D+00 Y=-1.058285905221D+03 DE= 0.00D+00
     ILin= 2 X=4.928D-01 Y=-1.058284128964D+03 DE= 1.78D-03
     ILin= 3 X=3.485D-01 Y=-1.058286122203D+03 DE=-2.17D-04
     A contracting polynomial of degree  3 produced  0.1849
 Iteration  56 EE= -1058.28690131563     Delta-E=       -0.000996095075 Grad=3.423D-02
 Gradient too large for Newton-Raphson -- use scaled steepest descent instead.
     ILin= 1 X=0.000D+00 Y=-1.058286901316D+03 DE= 0.00D+00
     ILin= 2 X=4.928D-01 Y=-1.058287917913D+03 DE=-1.02D-03
     ILin= 3 X=6.970D-01 Y=-1.058287538312D+03 DE=-6.37D-04
     An  expanding polynomial of degree  3 produced  0.4297
 Iteration  57 EE= -1058.28794066956     Delta-E=       -0.001039353930 Grad=4.216D-02
 Gradient too large for Newton-Raphson -- use scaled steepest descent instead.
     ILin= 1 X=0.000D+00 Y=-1.058287940670D+03 DE= 0.00D+00
     ILin= 2 X=4.297D-01 Y=-1.058287082179D+03 DE= 8.58D-04
     ILin= 3 X=3.038D-01 Y=-1.058288569957D+03 DE=-6.29D-04
     A contracting polynomial of degree  3 produced  0.1839
 Iteration  58 EE= -1058.28903609417     Delta-E=       -0.001095424601 Grad=3.712D-02
 Gradient too large for Newton-Raphson -- use scaled steepest descent instead.
     ILin= 1 X=0.000D+00 Y=-1.058289036094D+03 DE= 0.00D+00
     ILin= 2 X=4.297D-01 Y=-1.058290243003D+03 DE=-1.21D-03
     ILin= 3 X=6.077D-01 Y=-1.058290075108D+03 DE=-1.04D-03
     An  expanding polynomial of degree  3 produced  0.4423
 Iteration  59 EE= -1058.29024397552     Delta-E=       -0.001207881354 Grad=4.481D-02
 Gradient too large for Newton-Raphson -- use scaled steepest descent instead.
     ILin= 1 X=0.000D+00 Y=-1.058290243976D+03 DE= 0.00D+00
     ILin= 2 X=4.423D-01 Y=-1.058289015910D+03 DE= 1.23D-03
     ILin= 3 X=3.127D-01 Y=-1.058290886654D+03 DE=-6.43D-04
     A contracting polynomial of degree  3 produced  0.1839
 Iteration  60 EE= -1058.29151330748     Delta-E=       -0.001269331957 Grad=3.927D-02
 Gradient too large for Newton-Raphson -- use scaled steepest descent instead.
     ILin= 1 X=0.000D+00 Y=-1.058291513307D+03 DE= 0.00D+00
     ILin= 2 X=4.423D-01 Y=-1.058292886045D+03 DE=-1.37D-03
     ILin= 3 X=6.255D-01 Y=-1.058292673993D+03 DE=-1.16D-03
     An  expanding polynomial of degree  3 produced  0.4489
 Iteration  61 EE= -1058.29288636217     Delta-E=       -0.001373054696 Grad=4.755D-02
 Gradient too large for Newton-Raphson -- use scaled steepest descent instead.
     ILin= 1 X=0.000D+00 Y=-1.058292886362D+03 DE= 0.00D+00
     ILin= 2 X=4.489D-01 Y=-1.058291566391D+03 DE= 1.32D-03
     ILin= 3 X=3.174D-01 Y=-1.058293616561D+03 DE=-7.30D-04
     A contracting polynomial of degree  3 produced  0.1876
 Iteration  62 EE= -1058.29430474912     Delta-E=       -0.001418386943 Grad=4.121D-02
 Gradient too large for Newton-Raphson -- use scaled steepest descent instead.
     ILin= 1 X=0.000D+00 Y=-1.058294304749D+03 DE= 0.00D+00
     ILin= 2 X=4.489D-01 Y=-1.058295788823D+03 DE=-1.48D-03
     ILin= 3 X=6.349D-01 Y=-1.058295510571D+03 DE=-1.21D-03
     An  expanding polynomial of degree  3 produced  0.4430
 Iteration  63 EE= -1058.29578904725     Delta-E=       -0.001484298129 Grad=4.834D-02
 Gradient too large for Newton-Raphson -- use scaled steepest descent instead.
     ILin= 1 X=0.000D+00 Y=-1.058295789047D+03 DE= 0.00D+00
     ILin= 2 X=4.430D-01 Y=-1.058294915917D+03 DE= 8.73D-04
     ILin= 3 X=3.132D-01 Y=-1.058296733578D+03 DE=-9.45D-04
     A contracting polynomial of degree  3 produced  0.1959
 Iteration  64 EE= -1058.29728311279     Delta-E=       -0.001494065542 Grad=4.236D-02
 Gradient too large for Newton-Raphson -- use scaled steepest descent instead.
     ILin= 1 X=0.000D+00 Y=-1.058297283113D+03 DE= 0.00D+00
     ILin= 2 X=4.430D-01 Y=-1.058298780886D+03 DE=-1.50D-03
     ILin= 3 X=6.265D-01 Y=-1.058298445332D+03 DE=-1.16D-03
     An  expanding polynomial of degree  3 produced  0.4248
 Iteration  65 EE= -1058.29878342447     Delta-E=       -0.001500311680 Grad=4.694D-02
 Gradient too large for Newton-Raphson -- use scaled steepest descent instead.
     ILin= 1 X=0.000D+00 Y=-1.058298783424D+03 DE= 0.00D+00
     ILin= 2 X=4.248D-01 Y=-1.058298692699D+03 DE= 9.07D-05
     ILin= 3 X=3.004D-01 Y=-1.058299954117D+03 DE=-1.17D-03
     A contracting polynomial of degree  3 produced  0.2092
 Iteration  66 EE= -1058.30024421398     Delta-E=       -0.001460789509 Grad=4.230D-02
 Gradient too large for Newton-Raphson -- use scaled steepest descent instead.
     ILin= 1 X=0.000D+00 Y=-1.058300244214D+03 DE= 0.00D+00
     ILin= 2 X=4.248D-01 Y=-1.058301643611D+03 DE=-1.40D-03
     ILin= 3 X=6.007D-01 Y=-1.058301292357D+03 DE=-1.05D-03
     An  expanding polynomial of degree  3 produced  0.3994
 Iteration  67 EE= -1058.30164890080     Delta-E=       -0.001404686820 Grad=4.345D-02
 Gradient too large for Newton-Raphson -- use scaled steepest descent instead.
     ILin= 1 X=0.000D+00 Y=-1.058301648901D+03 DE= 0.00D+00
     ILin= 2 X=3.994D-01 Y=-1.058302203126D+03 DE=-5.54D-04
     ILin= 3 X=5.649D-01 Y=-1.058300144127D+03 DE= 1.50D-03
     An  expanding polynomial of degree  3 produced  0.2280
 Iteration  68 EE= -1058.30296455822     Delta-E=       -0.001315657426 Grad=4.085D-02
 Gradient too large for Newton-Raphson -- use scaled steepest descent instead.
     ILin= 1 X=0.000D+00 Y=-1.058302964558D+03 DE= 0.00D+00
     ILin= 2 X=3.994D-01 Y=-1.058304162923D+03 DE=-1.20D-03
     ILin= 3 X=5.649D-01 Y=-1.058303829688D+03 DE=-8.65D-04
     An  expanding polynomial of degree  3 produced  0.3687
 Iteration  69 EE= -1058.30417086594     Delta-E=       -0.001206307718 Grad=3.812D-02
 Gradient too large for Newton-Raphson -- use scaled steepest descent instead.
     ILin= 1 X=0.000D+00 Y=-1.058304170866D+03 DE= 0.00D+00
     ILin= 2 X=3.687D-01 Y=-1.058305009168D+03 DE=-8.38D-04
     ILin= 3 X=5.214D-01 Y=-1.058304019249D+03 DE= 1.52D-04
     An  expanding polynomial of degree  3 produced  0.2521
 Iteration  70 EE= -1058.30525424774     Delta-E=       -0.001083381802 Grad=3.776D-02
 Gradient too large for Newton-Raphson -- use scaled steepest descent instead.
     ILin= 1 X=0.000D+00 Y=-1.058305254248D+03 DE= 0.00D+00
     ILin= 2 X=3.687D-01 Y=-1.058306199510D+03 DE=-9.45D-04
     ILin= 3 X=5.214D-01 Y=-1.058305938613D+03 DE=-6.84D-04
     An  expanding polynomial of degree  3 produced  0.3408
 Iteration  71 EE= -1058.30620558350     Delta-E=       -0.000951335752 Grad=3.195D-02
 Gradient too large for Newton-Raphson -- use scaled steepest descent instead.
     ILin= 1 X=0.000D+00 Y=-1.058306205583D+03 DE= 0.00D+00
     ILin= 2 X=3.408D-01 Y=-1.058306977329D+03 DE=-7.72D-04
     ILin= 3 X=4.820D-01 Y=-1.058306583376D+03 DE=-3.78D-04
     An  expanding polynomial of degree  3 produced  0.2784
 Iteration  72 EE= -1058.30702229952     Delta-E=       -0.000816716023 Grad=3.309D-02
 Gradient too large for Newton-Raphson -- use scaled steepest descent instead.
     ILin= 1 X=0.000D+00 Y=-1.058307022300D+03 DE= 0.00D+00
     ILin= 2 X=3.408D-01 Y=-1.058307705250D+03 DE=-6.83D-04
     ILin= 3 X=4.820D-01 Y=-1.058307531045D+03 DE=-5.09D-04
     An  expanding polynomial of degree  3 produced  0.3196
 Iteration  73 EE= -1058.30770814286     Delta-E=       -0.000685843337 Grad=2.570D-02
 Gradient too large for Newton-Raphson -- use scaled steepest descent instead.
     ILin= 1 X=0.000D+00 Y=-1.058307708143D+03 DE= 0.00D+00
     ILin= 2 X=3.196D-01 Y=-1.058308267643D+03 DE=-5.59D-04
     ILin= 3 X=4.519D-01 Y=-1.058308135099D+03 DE=-4.27D-04
     An  expanding polynomial of degree  3 produced  0.3035
 Iteration  74 EE= -1058.30826959865     Delta-E=       -0.000561455798 Grad=2.740D-02
 Gradient too large for Newton-Raphson -- use scaled steepest descent instead.
     ILin= 1 X=0.000D+00 Y=-1.058308269599D+03 DE= 0.00D+00
     ILin= 2 X=3.035D-01 Y=-1.058308719102D+03 DE=-4.50D-04
     ILin= 3 X=4.292D-01 Y=-1.058308643761D+03 DE=-3.74D-04
     An  expanding polynomial of degree  3 produced  0.3046
 Iteration  75 EE= -1058.30871911069     Delta-E=       -0.000449512040 Grad=1.989D-02
 Gradient too large for Newton-Raphson -- use scaled steepest descent instead.
     ILin= 1 X=0.000D+00 Y=-1.058308719111D+03 DE= 0.00D+00
     ILin= 2 X=3.046D-01 Y=-1.058309069361D+03 DE=-3.50D-04
     ILin= 3 X=4.307D-01 Y=-1.058309033547D+03 DE=-3.14D-04
     An  expanding polynomial of degree  3 produced  0.3250
 Iteration  76 EE= -1058.30907059339     Delta-E=       -0.000351482693 Grad=2.153D-02
 Gradient too large for Newton-Raphson -- use scaled steepest descent instead.
     ILin= 1 X=0.000D+00 Y=-1.058309070593D+03 DE= 0.00D+00
     ILin= 2 X=3.250D-01 Y=-1.058309336834D+03 DE=-2.66D-04
     ILin= 3 X=4.596D-01 Y=-1.058309254715D+03 DE=-1.84D-04
     An  expanding polynomial of degree  3 produced  0.2942
 Iteration  77 EE= -1058.30933971712     Delta-E=       -0.000269123736 Grad=1.485D-02
 Gradient too large for Newton-Raphson -- use scaled steepest descent instead.
     ILin= 1 X=0.000D+00 Y=-1.058309339717D+03 DE= 0.00D+00
     ILin= 2 X=3.250D-01 Y=-1.058309541791D+03 DE=-2.02D-04
     ILin= 3 X=4.596D-01 Y=-1.058309518986D+03 DE=-1.79D-04
     An  expanding polynomial of degree  3 produced  0.3431
 Iteration  78 EE= -1058.30954229389     Delta-E=       -0.000202576767 Grad=1.628D-02
 Gradient too large for Newton-Raphson -- use scaled steepest descent instead.
     ILin= 1 X=0.000D+00 Y=-1.058309542294D+03 DE= 0.00D+00
     ILin= 2 X=3.431D-01 Y=-1.058309686503D+03 DE=-1.44D-04
     ILin= 3 X=4.852D-01 Y=-1.058309620167D+03 DE=-7.79D-05
     An  expanding polynomial of degree  3 produced  0.2865
 Iteration  79 EE= -1058.30969230168     Delta-E=       -0.000150007789 Grad=1.079D-02
 Gradient too large for Newton-Raphson -- use scaled steepest descent instead.
     ILin= 1 X=0.000D+00 Y=-1.058309692302D+03 DE= 0.00D+00
     ILin= 2 X=3.431D-01 Y=-1.058309801664D+03 DE=-1.09D-04
     ILin= 3 X=4.852D-01 Y=-1.058309788148D+03 DE=-9.58D-05
     An  expanding polynomial of degree  3 produced  0.3584
 Iteration  80 EE= -1058.30980184436     Delta-E=       -0.000109542685 Grad=1.198D-02
 Gradient too large for Newton-Raphson -- use scaled steepest descent instead.
     ILin= 1 X=0.000D+00 Y=-1.058309801844D+03 DE= 0.00D+00
     ILin= 2 X=3.584D-01 Y=-1.058309876279D+03 DE=-7.44D-05
     ILin= 3 X=5.069D-01 Y=-1.058309831580D+03 DE=-2.97D-05
     An  expanding polynomial of degree  3 produced  0.2827
 Iteration  81 EE= -1058.30988200620     Delta-E=       -0.000080161840 Grad=7.807D-03
 QCNR:  CnvC1=7.81D-08 CnvC2=7.81D-07
 LinEq1:  Iter=  0 NonCon=     1 RMS=1.23D-04 Max=2.80D-02
 AX will form     1 AO Fock derivatives at one time.
 LinEq1:  Iter=  1 NonCon=     1 RMS=2.20D-04 Max=1.50D-02
 LinEq1:  Iter=  2 NonCon=     1 RMS=8.33D-05 Max=1.31D-02
 LinEq1:  Iter=  3 NonCon=     1 RMS=1.48D-05 Max=1.75D-03
 LinEq1:  Iter=  4 NonCon=     1 RMS=5.77D-06 Max=4.04D-04
 LinEq1:  Iter=  5 NonCon=     1 RMS=5.96D-06 Max=3.65D-04
 LinEq1:  Iter=  6 NonCon=     1 RMS=5.44D-06 Max=1.89D-04
 LinEq1:  Iter=  7 NonCon=     1 RMS=3.70D-06 Max=2.01D-04
 LinEq1:  Iter=  8 NonCon=     1 RMS=3.44D-06 Max=2.27D-04
 LinEq1:  Iter=  9 NonCon=     1 RMS=2.29D-06 Max=1.14D-04
 LinEq1:  Iter= 10 NonCon=     1 RMS=1.96D-06 Max=1.41D-04
 LinEq1:  Iter= 11 NonCon=     1 RMS=2.45D-06 Max=1.96D-04
 LinEq1:  Iter= 12 NonCon=     1 RMS=1.45D-06 Max=1.03D-04
 LinEq1:  Iter= 13 NonCon=     1 RMS=1.37D-06 Max=7.70D-05
 LinEq1:  Iter= 14 NonCon=     1 RMS=1.23D-06 Max=5.16D-05
 LinEq1:  Iter= 15 NonCon=     1 RMS=8.34D-07 Max=3.50D-05
 LinEq1:  Iter= 16 NonCon=     1 RMS=5.77D-07 Max=2.52D-05
 LinEq1:  Iter= 17 NonCon=     1 RMS=2.83D-07 Max=9.66D-06
[...]
 00000005,-0.00000839,-0.00000161,0.00000033,-0.00000012,0.00000069,0.0
 2077230,-0.02940988,0.00062670,-0.00000029,-0.00000004,-0.00000021,0.0
 0088206,0.00051660,-0.00044890,-0.00000030,0.00000130,0.00000006,-0.00
 098263,0.00060198,0.00048854,-0.00000153,-0.00000370,0.00000201,-0.001
 20784,0.00014276,-0.00006270,0.00000084,0.00000138,0.00000039,0.001272
 45,0.00007630,0.00001331,-0.00000100,0.00000059,-0.00000190,-0.0211308
 0,0.01639531,0.00032291,0.00005132,-0.00042683,-0.00024845,-0.00009432
 ,-0.00008229,-0.00012923,-0.00000359,0.00013629,-0.00026216,0.00009634
 ,-0.00008816,0.00008501,-0.00000324,-0.00003646,0.00000290,0.00000208,
 -0.00000024,-0.00203438,-0.00006428,0.01069486,0.00000134,-0.00000076,
 0.00000089,0.00001049,-0.00000236,0.00001073,-0.00000051,0.00000218,-0
 .00000066,0.00000122,-0.00000463,0.00000008,0.00000099,0.00000001,-0.0
 0000074,0.00000044,0.00000489,-0.00000008,0.00000026,0.00000071,-0.000
 00021,-0.00001054,0.00000008,0.00000298,0.00000070,0.00000068,0.000001
 11,-0.00000374,-0.00000006,0.00000466,-0.00000011,0.00000059,-0.000000
 87,-0.03526234,0.00064245,-0.02658507,0.00000009,-0.00000057,0.0000001
 7,-0.00095258,-0.00011487,-0.00014901,0.00000050,-0.00000082,-0.000000
 50,-0.00090374,0.00009766,-0.00017429,0.00000089,0.00000013,-0.0000011
 4,0.00111362,-0.00042611,0.00045121,0.00000050,0.00000089,-0.00000004,
 0.00107695,0.00040266,0.00040824,-0.00000266,-0.00000050,0.00000046,0.
 03678720,-0.00058776,0.01569507,0.00015689,-0.00000347,0.00003909,0.00
 000208,0.00000786,0.00000887,-0.00005190,-0.00009653,-0.00030623,-0.00
 000278,-0.00000113,0.00000282,0.00146101,0.00228446,-0.00125263,-0.000
 58774,0.00036819,0.00020364,-0.00001400,0.00000001,0.00001084,-0.00015
 970,-0.00002153,0.00019539,0.00028370,-0.00020226,0.00004184,0.0000207
 0,0.00005320,-0.00010751,-0.00012066,0.00005431,0.00042893,-0.00002327
 ,-0.00004414,-0.00001249,-0.00003117,0.00020294,0.00014220,-0.00026387
 ,0.00014627,-0.00067991,-0.17587050,-0.14767582,-0.07520648,0.00823342
 ,0.01154489,0.00522447,-0.00000368,-0.00024589,0.00038904,0.00000471,0
 .00000661,-0.00004533,-0.00000612,0.00000099,-0.00000322,0.00007762,-0
 .00026563,-0.00020895,0.00000169,-0.00000583,0.00000435,0.00005102,0.0
 0003577,0.00004683,0.00000414,0.00000714,0.00000116,-0.00001537,0.0000
 4033,-0.00008007,0.00000265,-0.00000372,-0.00000350,0.00005694,0.00000
 193,-0.00000107,-0.00000161,-0.00000334,-0.00001117,-0.02005432,-0.030
 06058,-0.01565639,-0.00000476,0.00000024,0.00000071,0.18679696,-0.0000
 4962,0.00000021,-0.00003588,-0.00000023,-0.00001415,-0.00001415,-0.000
 00396,-0.00009771,0.00035213,0.00000278,0.00000958,-0.00001216,0.00196
 919,0.00175202,-0.00157223,0.00030650,-0.00007044,-0.00060982,-0.00003
 397,0.00000479,-0.00001204,-0.00006919,0.00004967,0.00003299,0.0000487
 6,0.00008201,0.00005362,-0.00000810,-0.00009274,0.00000248,-0.00006458
 ,0.00008112,-0.00014561,-0.00000581,-0.00002189,-0.00000028,0.00041075
 ,0.00097715,0.00016954,-0.00012044,-0.00053559,0.00016092,-0.14924837,
 -0.25043299,-0.09474180,-0.02227293,-0.02538308,-0.01479726,-0.0001501
 0,0.00000291,0.00046729,-0.00001422,-0.00000667,0.00004542,0.00001289,
 -0.00000126,0.00000823,-0.00003497,0.00020287,0.00028844,0.00001364,0.
 00001389,-0.00001744,-0.00006355,0.00000355,0.00003364,0.00001006,-0.0
 0001484,-0.00001865,0.00009103,-0.00004905,-0.00004395,-0.00000816,-0.
 00000286,0.00002389,-0.00023810,-0.00003691,-0.00024397,-0.00000690,0.
 00000905,0.00002676,0.00563391,0.00567002,0.00245034,0.00000691,-0.000
 00020,-0.00000112,0.16388849,0.26780778,0.00001631,-0.00001164,0.00009
 902,-0.00000036,0.00000987,0.00000699,0.00024972,0.00003008,-0.0006440
 9,0.00000006,-0.00000806,0.00000858,-0.00934699,-0.01181882,-0.0060013
 1,0.00102217,-0.00046003,-0.00063679,0.00000179,0.00000172,0.00000406,
 0.00047748,-0.00004639,-0.00032539,0.00024336,0.00011775,0.00082658,-0
 .00022341,-0.00011398,0.00001984,0.00000820,0.00019086,-0.00055086,0.0
 0000571,0.00009607,0.00000150,-0.00022031,-0.00008357,0.00111465,-0.00
 047651,0.00220946,-0.00081049,-0.09940174,-0.12478561,-0.09207896,0.01
 051163,0.01356190,0.00396994,0.00151753,0.00200826,-0.00106248,0.00006
 150,0.00002226,0.00025470,-0.00000644,0.00000679,-0.00000081,-0.000021
 58,0.00009866,-0.00002996,-0.00001049,-0.00000550,0.00000541,-0.000021
 56,-0.00004845,0.00001500,-0.00000205,0.00001030,0.00001872,-0.0000656
 9,0.00005387,0.00013052,0.00000188,0.00000189,-0.00001155,0.00030485,-
 0.00011399,0.00015430,-0.00000229,-0.00001281,-0.00001341,0.00874258,0
 .01110338,0.00250897,-0.00000706,-0.00000089,0.00000009,0.08671595,0.1
 0806141,0.09360574,0.00053555,0.00120735,0.00097716,0.00030678,0.00020
 839,-0.00005787,-0.00033633,-0.00024849,-0.00019248,-0.00001002,0.0000
 4240,0.00003996,0.00039021,-0.00001423,-0.00000337,0.00000440,0.000005
 24,-0.00000046,0.01221743,0.00083529,-0.00128756,0.00000682,-0.0000029
 8,0.00000337,0.00003006,0.00000383,-0.00000448,0.00000656,0.00000360,0
 .00000581,0.00000423,-0.00000620,-0.00002000,-0.00000206,0.00000281,0.
 00000857,-0.00000402,0.00001029,0.00000410,-0.00000052,0.00000306,-0.0
 0000057,-0.00002230,0.00000469,-0.00000016,0.00000128,0.00000231,0.000
 00430,-0.00001773,-0.00001802,0.00000508,0.00000625,0.00000339,-0.0000
 0512,0.00076853,-0.00104533,-0.00099700,-0.00000095,-0.00000389,0.0000
 0062,0.00002924,0.00024856,-0.00038342,0.00000682,-0.00000266,0.000001
 96,-0.02868308,0.03729293,0.03451951,-0.00000090,-0.00000355,0.0000028
 7,-0.00003593,-0.00025671,0.00004418,0.00000120,0.00000385,0.00000099,
 -0.00151926,-0.00044119,0.00092427,-0.00001195,-0.00000137,-0.00000249
 ,-0.00023981,0.00021860,0.00019883,-0.00000207,-0.00000202,0.00000235,
 0.01662048,0.00070267,-0.00005290,0.00073303,0.00019410,-0.00097418,-0
 .00108161,0.00028678,0.00003931,-0.00015397,0.00005207,0.00140607,-0.0
 0097765,-0.00134893,-0.00006778,0.00005513,-0.00003920,-0.00001316,0.0
 0001441,0.00204587,0.00172531,-0.00964639,-0.00003193,0.00001512,0.000
 00814,-0.00025341,0.00001384,-0.00003126,-0.00002873,-0.00001694,-0.00
 001347,-0.00000143,0.00006784,-0.00000537,0.00004145,-0.00005646,-0.00
 001181,-0.00000584,-0.00005852,0.00001340,-0.00000725,-0.00001810,0.00
 000833,0.00007538,0.00001137,-0.00003235,-0.00000794,-0.00001039,-0.00
 001628,0.00006532,-0.00001338,0.00003020,-0.00000971,-0.00000825,0.000
 01759,-0.00142507,0.00133011,0.00012725,-0.00000810,0.00000929,0.00000
 076,-0.00078849,0.00285096,-0.00002066,-0.00001808,0.00000929,-0.00000
 029,0.03709815,-0.66669309,-0.57942243,0.00005210,0.00008021,-0.000000
 36,0.00033514,-0.00168194,0.00031832,-0.00000909,-0.00001344,-0.000008
 08,-0.00069961,-0.00177670,-0.00071603,0.00006755,0.00001278,0.0000452
 6,0.00164651,-0.00018133,0.00005890,-0.00000405,0.00001263,-0.00000922
 ,-0.03801895,0.66545903,0.00105813,-0.00004509,0.00067147,-0.00006703,
 -0.00108190,-0.00065883,0.00012930,0.00005258,-0.00012696,0.00010395,0
 .00083383,-0.00124086,-0.00119405,-0.00004659,0.00004584,-0.00003444,-
 0.00000993,0.00001295,-0.00016486,-0.01059914,0.00229362,-0.00002969,0
 .00001374,0.00000603,-0.00022806,0.00000882,-0.00003015,-0.00002503,-0
 .00001631,-0.00001129,0.00000229,0.00005723,-0.00000797,0.00003940,-0.
 00005537,-0.00001270,-0.00000345,-0.00005437,0.00001733,-0.00000891,-0
 .00001453,0.00000721,0.00006265,0.00001123,-0.00002259,-0.00000677,-0.
 00000911,-0.00001256,0.00004919,-0.00001013,0.00002773,-0.00001036,-0.
 00000507,0.00001417,-0.00185130,0.00114190,-0.00012389,-0.00000519,0.0
 0000948,0.00000174,-0.00088426,0.00063591,-0.00083530,-0.00001503,0.00
 001132,-0.00000250,0.03435448,-0.57924934,-0.55036854,0.00004829,0.000
 07265,-0.00000346,0.00011680,-0.00024277,0.00224665,-0.00000997,-0.000
 01360,-0.00000821,0.00064312,-0.00016229,-0.00170808,0.00005989,0.0000
 1157,0.00004113,0.00163444,-0.00012031,0.00006968,-0.00000151,0.000011
 60,-0.00001069,-0.03383467,0.58972970,0.54867619,0.00019605,-0.0000016
 0,-0.00004511,0.00000043,0.00000534,0.00000339,-0.00009564,-0.00010220
 ,0.00031361,-0.00000095,-0.00000315,0.00000209,0.00190925,0.00278147,0
 .00092020,0.00003318,0.00005339,0.00010530,-0.00001486,0.00000213,-0.0
 0000628,-0.00017393,-0.00004165,-0.00021379,0.00018591,-0.00018679,-0.
 00010670,-0.00049943,0.00039694,-0.00014371,-0.00014516,0.00004433,-0.
 00042798,-0.00001852,-0.00003837,0.00000606,-0.00004955,0.00019521,-0.
 00008160,0.00004827,0.00000668,0.00000523,-0.00009825,-0.00034033,-0.0
 0044807,0.00000574,0.00000460,0.00004911,-0.17889532,-0.14350117,0.084
 87530,0.00715742,0.00983946,-0.00497957,-0.00000356,-0.00000314,0.0000
 0181,0.00005366,0.00004006,-0.00005821,-0.00000545,-0.00000588,0.00001
 108,0.00007668,-0.00029121,0.00020994,0.00000056,-0.00000184,0.0000009
 1,-0.00000877,0.00003169,0.00006541,0.00000079,0.00000527,-0.00000312,
 0.00006421,0.00021206,0.00064988,0.00000317,-0.00000355,-0.00000235,-0
 .00000947,-0.00001974,-0.00001774,-0.00000473,0.00000084,-0.00000060,0
 .00006716,0.00000886,-0.00013344,-0.00000231,0.00000020,-0.00000089,0.
 19075518,-0.00005660,-0.00000241,0.00001272,0.00000119,-0.00001488,-0.
 00001463,-0.00001163,-0.00010293,-0.00039217,0.00000252,0.00001056,-0.
 00001463,0.00228662,0.00188117,0.00121625,-0.00000252,-0.00009026,0.00
 000055,-0.00003498,0.00000392,0.00000168,-0.00007963,0.00004271,-0.000
 03699,0.00006491,0.00019681,-0.00008585,0.00030408,-0.00004819,0.00053
 977,-0.00005058,0.00008597,0.00016761,-0.00000241,-0.00002199,0.000013
 02,0.00034387,0.00089701,-0.00012298,-0.00023248,-0.00003092,0.0002481
 0,-0.00019493,-0.00003011,-0.00047547,-0.00001869,-0.00001173,-0.00004
 732,-0.14560634,-0.23505396,0.10095081,-0.02304433,-0.02506242,0.01647
 532,0.00001526,0.00000067,0.00000723,-0.00007024,-0.00000009,-0.000018
 05,0.00001397,0.00001871,-0.00002516,-0.00004416,0.00024534,-0.0003213
 2,0.00001043,-0.00001588,-0.00001845,0.00008477,-0.00004527,0.00005363
 ,-0.00000948,-0.00000380,0.00002719,0.00004301,-0.00027416,0.00016925,
 -0.00000870,0.00000751,0.00002615,-0.00000666,0.00001061,0.00002572,0.
 00000760,-0.00000050,-0.00000094,0.00000383,0.00008394,-0.00009570,-0.
 00000215,0.00001374,0.00001140,0.16009199,0.25117125,-0.00002051,0.000
 00350,0.00009185,0.00000032,-0.00000911,-0.00000817,-0.00027154,-0.000
 03192,-0.00067412,0.00000125,0.00000897,-0.00001172,0.00931723,0.01114
 734,-0.00641000,0.00022803,0.00010883,0.00000367,-0.00000456,-0.000000
 36,0.00000335,-0.00046176,0.00002060,-0.00030589,-0.00027659,-0.000118
 30,0.00086931,-0.00099416,0.00040828,-0.00060336,-0.00002362,-0.000184
 99,-0.00053196,-0.00000427,-0.00008127,0.00000157,0.00014030,0.0000443
 1,0.00106326,-0.00028018,0.00010953,0.00014736,-0.00159849,-0.00195797
 ,-0.00097517,-0.00005587,-0.00002749,0.00021304,0.11012974,0.13007971,
 -0.10450999,-0.01057053,-0.01297827,0.00447351,0.00001150,0.00000507,0
 .00000613,0.00002718,0.00005385,0.00001049,0.00000610,0.00001325,-0.00
 001510,0.00002656,-0.00009582,-0.00004701,0.00001238,-0.00000864,-0.00
 000748,0.00006041,-0.00004097,0.00012778,-0.00000454,-0.00000801,0.000
 01810,0.00050742,-0.00176319,-0.00039703,-0.00000568,0.00000126,0.0000
 1052,-0.00004365,-0.00001632,0.00023154,0.00000817,-0.00000066,-0.0000
 0045,0.00009298,0.00008324,-0.00076005,-0.00000271,0.00001162,0.000009
 34,-0.09759092,-0.11498371,0.10549347,0.00042432,-0.00115726,0.0010059
 1,-0.00001200,0.00003287,0.00008319,-0.00032589,0.00024458,-0.00021120
 ,0.00028835,-0.00026153,0.00000650,0.00043866,0.00002786,-0.00002170,0
 .00001115,0.00000349,-0.00000390,0.01210964,-0.00121090,-0.00088297,0.
 00000553,-0.00000540,-0.00000201,0.00004347,-0.00001599,0.00001631,0.0
 0000634,0.00000482,0.00000360,-0.00000176,-0.00001380,0.00000367,-0.00
 000346,0.00000548,0.00000115,0.00000521,0.00000967,-0.00002139,-0.0000
 0207,0.00000521,-0.00000024,-0.00002613,-0.00000295,-0.00000101,-0.000
 00022,0.00000211,0.00000371,-0.00001309,0.00001562,0.00001543,-0.00000
 170,-0.00000024,-0.00000463,0.00089560,0.00103171,-0.00105765,-0.00000
 012,-0.00000304,0.00000021,-0.03407918,-0.05780884,0.06238556,0.000002
 17,-0.00000385,-0.00000024,0.00006674,-0.00014464,-0.00036265,-0.00000
 105,-0.00000453,0.00001648,-0.00148297,0.00046226,0.00094264,0.0000069
 2,0.00000450,0.00000409,-0.00003540,0.00017035,0.00000640,-0.00001342,
 -0.00000351,-0.00000242,-0.00032532,-0.00020346,0.00021238,0.00000097,
 -0.00000322,0.00000287,-0.00003030,-0.00003012,0.00000209,0.00000301,-
 0.00000638,-0.00000093,0.02205926,-0.00064022,-0.00003250,-0.00072064,
 0.00002529,0.00141025,0.00080096,-0.00028790,0.00000053,0.00014212,-0.
 00025186,-0.00080279,0.00109328,0.00125803,-0.00000055,-0.00002563,0.0
 0003249,0.00001617,-0.00000928,-0.00242599,0.00303391,0.00969238,0.000
 03124,-0.00001510,0.00000486,0.00023646,-0.00001178,-0.00000533,0.0000
 3326,0.00001056,0.00001763,-0.00000187,-0.00004902,-0.00001535,-0.0000
 4914,0.00005628,-0.00000150,0.00000319,0.00006631,0.00000595,0.0000080
 4,0.00001463,-0.00000647,-0.00006906,0.00001873,0.00002844,0.00000805,
 0.00000881,0.00001416,-0.00005997,-0.00000247,-0.00003030,0.00000005,0
 .00000418,-0.00001340,0.00133373,0.00117987,-0.00016465,0.00000596,-0.
 00001136,-0.00000291,-0.05756496,-0.59109540,0.57986202,0.00000936,-0.
 00000878,-0.00000011,0.00085430,0.00276681,-0.00013491,-0.00003259,-0.
 00006854,0.00002426,0.00073975,-0.00178948,0.00068668,0.00001853,0.000
 01296,0.00000934,-0.00041269,-0.00168299,-0.00009602,-0.00006505,-0.00
 001327,-0.00004330,-0.00153863,-0.00011457,-0.00005537,0.00000661,-0.0
 0001464,0.00000894,-0.00003255,-0.00141744,-0.00087337,0.00000820,-0.0
 0001784,-0.00001055,0.05886944,0.58858342,0.00111978,0.00005564,0.0007
 0000,0.00005921,-0.00101339,-0.00123675,0.00015840,-0.00002124,-0.0001
 2341,-0.00000047,0.00108872,-0.00080845,-0.00127729,-0.00001831,0.0000
 2850,-0.00003397,-0.00001623,0.00001025,0.00041346,0.01050951,0.001102
 91,-0.00003285,0.00001559,-0.00000696,-0.00024565,0.00001451,0.0000054
 8,-0.00003407,-0.00001241,-0.00001777,0.00000513,0.00005370,0.00002010
 ,0.00005337,-0.00005932,-0.00000098,0.00000149,-0.00006423,-0.00001146
 ,-0.00000685,-0.00001506,0.00000799,0.00006455,-0.00001821,-0.00002476
 ,-0.00000651,-0.00000923,-0.00001558,0.00004493,0.00000754,0.00002439,
 -0.00000411,-0.00000210,0.00001293,-0.00199661,-0.00116771,-0.00005491
 ,-0.00000800,0.00000983,0.00000241,0.06216516,0.57981714,-0.62258244,-
 0.00001139,0.00001072,-0.00000081,-0.00097751,-0.00084459,-0.00073172,
 0.00004035,0.00007810,-0.00002305,0.00058431,0.00017259,-0.00177249,-0
 .00001608,-0.00001570,-0.00001134,0.00016508,0.00050013,0.00225544,0.0
 0006745,0.00001074,0.00004658,0.00175386,0.00007294,0.00007080,-0.0000
 0457,0.00001322,-0.00000723,0.00004962,0.00103612,0.00109696,-0.000008
 91,0.00001655,0.00000862,-0.06213846,-0.59023156,0.62208560,-0.0008467
 6,0.00006186,-0.00101110,0.00001109,-0.00006701,-0.00007429,0.00191485
 ,-0.00001704,-0.00001669,0.00001429,0.00005327,-0.00007161,0.00155886,
 -0.00054857,-0.00134669,0.00001079,-0.00000559,0.00005202,-0.00024623,
 0.00001579,0.00002242,-0.00000312,0.00000443,0.00000025,0.00024367,-0.
 00002501,0.00004159,-0.00002006,0.00001460,0.00009743,-0.00001869,-0.0
 0002472,0.00001259,0.00003389,-0.00001238,-0.00000099,0.00002159,-0.00
 006011,-0.00005428,-0.00003917,0.00000916,-0.00001564,0.00005728,0.000
 03999,0.00055372,0.00000461,0.00000930,0.00003922,-0.37700984,0.060892
 95,-0.09684557,-0.00906193,-0.00002854,-0.00416394,0.00012616,-0.00001
 860,0.00005013,-0.00001471,-0.00001342,0.00001243,0.00006048,0.0000311
 5,-0.00010025,0.00000120,0.00010633,-0.00009207,0.00004579,-0.00007707
 ,-0.00013211,0.00004672,0.00000027,-0.00000938,-0.00005108,0.00000674,
 0.00013763,-0.00002946,-0.00013640,-0.00020363,-0.00004175,0.00003222,
 0.00015585,0.00011323,0.00000245,0.00005413,0.00002913,0.00000180,-0.0
 0000689,-0.00000816,-0.00000531,0.00005398,-0.00001629,0.00007263,0.00
 007146,-0.02053477,0.00620884,-0.00835909,-0.00001326,-0.00004948,0.00
 005712,0.40366163,-0.00002965,-0.00011061,-0.00001701,-0.00000041,-0.0
 0001161,-0.00001014,-0.00012048,-0.00014398,-0.00001061,0.00000127,0.0
 0000988,-0.00001236,-0.00036403,0.00051075,0.00011258,-0.00001632,-0.0
 0002405,-0.00000020,-0.00002679,-0.00000285,0.00000168,0.00004861,-0.0
 0001209,0.00004904,-0.00006962,0.00003031,-0.00006487,-0.00000495,-0.0
 0016762,-0.00003024,0.00005080,-0.00006379,0.00016742,0.00000461,-0.00
 005841,0.00006127,0.00009238,-0.00004829,0.00004187,-0.00000593,0.0000
 0031,0.00000928,0.00003597,0.00015199,-0.00008387,0.00001100,-0.000005
 59,-0.00004243,0.06029331,-0.07128985,0.01886316,0.03585077,-0.0057979
 4,0.01203681,0.00001579,0.00001165,0.00000402,-0.00003466,-0.00000743,
 0.00004471,0.00001744,0.00003522,-0.00003559,0.00009247,0.00025677,-0.
 00016857,0.00000946,0.00000938,-0.00000099,0.00001699,-0.00011628,-0.0
 0012318,-0.00000529,-0.00001337,0.00002490,-0.00017102,-0.00011398,-0.
 00004584,-0.00000581,-0.00000452,0.00001276,-0.00000327,0.00002158,-0.
 00001679,0.00000678,-0.00000264,-0.00000028,-0.00002015,0.00001180,0.0
 0002123,0.00000372,-0.00000290,-0.00000376,-0.02918810,0.00615742,-0.0
 0978181,-0.00001032,-0.00003488,0.00002597,-0.06647453,0.07082565,0.00
 198929,-0.00000303,-0.00002975,-0.00000961,0.00005099,0.00005166,-0.00
 159690,0.00001435,0.00186062,-0.00001067,-0.00004510,0.00005455,-0.014
 44025,0.00274922,-0.00838014,-0.00001741,-0.00002702,0.00000135,-0.000
 04422,0.00000835,-0.00005856,0.00003978,-0.00000285,-0.00002519,0.0002
 8270,0.00002165,-0.00062984,0.00033442,0.00001696,0.00005715,0.0000140
 1,-0.00000412,-0.00006845,-0.00001997,0.00010425,-0.00005256,0.0000775
 1,-0.00002283,0.00042621,-0.00004250,0.00011725,-0.00003441,0.00224356
 ,-0.00045848,-0.00080932,0.00002775,0.00001390,0.00024818,-0.13322459,
 0.02594093,-0.06812514,0.01656298,-0.00343881,0.00251042,-0.00009167,0
 .00000789,-0.00001265,-0.00000435,-0.00006149,-0.00003631,-0.00001493,
 -0.00004087,0.00005779,-0.00004763,-0.00003580,-0.00006215,-0.00000085
 ,0.00005870,0.00007496,0.00000689,-0.00024940,-0.00013199,0.00003095,-
 0.00000212,-0.00006213,-0.00010178,-0.00031756,-0.00008608,0.00003131,
 -0.00002098,-0.00006865,-0.00008702,-0.00000638,-0.00066248,-0.0000586
 3,0.00000023,-0.00000027,0.00003188,-0.00001879,0.00019947,-0.00000118
 ,-0.00006093,-0.00005346,0.01704964,-0.00330959,0.00247459,-0.00000078
 ,0.00004964,-0.00004886,0.11109225,-0.02102815,0.07142144\\-0.00006953
 ,0.00003297,0.00014005,-0.00002801,0.00003786,-0.00000736,0.00010306,0
 .00007913,-0.00008510,-0.00003395,-0.00004229,0.00007949,0.00003423,-0
 .00009119,-0.00008868,-0.00013328,0.00014448,-0.00008356,-0.00001800,-
 0.00000667,-0.00004237,-0.00007468,-0.00005569,-0.00011713,0.00000322,
 -0.00015160,0.00018838,-0.00015478,0.00010919,-0.00017382,-0.00002040,
 0.00000128,0.00000009,0.00001367,-0.00000734,-0.00002322,-0.00001583,-
 0.00002501,0.00006125,-0.00000113,0.00000046,0.00000884,0.00005048,-0.
 00004760,0.00002026,0.00002351,-0.00018607,-0.00024227,0.00008100,0.00
 000460,0.00006047,0.00017229,-0.00014224,0.00009064,0.00007363,0.00002
 990,-0.00002770,0.00005422,0.00002814,0.00024135,-0.00004623,-0.000137
 23,-0.00003044,-0.00007425,0.00009758,-0.00000584,-0.00004614,0.000072
 60,0.00011619,0.00000059,0.00000903,0.00000583,0.00004368,0.00009245,0
 .00000305,0.00009721,0.00008018,-0.00010701,0.00002844,-0.00011200,-0.
 00009898,-0.00001189,0.00006961,-0.00006082,-0.00005883,-0.00001173,-0
 .00000603,-0.00007591,0.00000974,0.00022458,0.00003590,-0.00002333,-0.
 00002246,0.00000753,0.00005069,0.00005472,0.00002710,0.00004133,-0.000
 08249,0.00001308,0.00004879,0.00001009\\\@


 THERE ARE TWO THINGS THAT EVERYBODY THINKS THEY CAN DO BETTER THAN
 ANYONE ELSE - PUNCH THE FIRE, AND EDIT A DAILY PAPER.
 -- UNCLE ESEK, "CENTURY MAGAZINE", 1885
 Job cpu time:  3 days 17 hours  9 minutes 38.6 seconds.
 File lengths (MBytes):  RWF=   1837 Int=      0 D2E=      0 Chk=     32 Scr=      1
 Normal termination of Gaussian 09 at Wed May 12 23:56:09 2010.
